LAMMPS (5 Nov 2016)
Processor partition = 0
# For lammps simulation
units               real
atom_style          awsemmd
boundary            p p p
newton              on  #yes

#   ---         Variables for debye huckel potential        ---     #
#   parallel replica temperatures
variable            T   equal   300
variable v1 equal random(1,1000,6178)
variable            random      equal   round(v_v1)

variable            salt        equal   150.0       # Salt concentration [mM]
variable            ldby        equal   7.853761    # debye screen length, depend on both T and salt, determined from known formula given that dielec=78
variable            ldbi        equal   1.0/v_ldby  # debye screen length
variable            cut_coul    equal   v_ldby*4.0  # coulombic cutoff is four times the debye length.
                                                    # This is consistent with the DNA model
variable            cut_lj      equal   15.0
variable            cut_lj_pair equal   20.0
variable            dielec      equal   78.0

read_data           /nfs/pool002/users/smliu/tetra-nucl-msm/lammps-structures/multi_nucleo-v1.0-172-4-seq-1zbb/single_nucleo/post_processing/data.prot_dna
  orthogonal box = (-1000 -1000 -1000) to (1000 1000 1000)
  1 by 1 by 2 MPI processor grid
  reading atoms ...
  7872 atoms
  scanning bonds ...
  2 = max bonds/atom
  scanning angles ...
  3 = max angles/atom
  scanning dihedrals ...
  2 = max dihedrals/atom
  reading bonds ...
  7838 bonds
  reading angles ...
  10450 angles
  reading dihedrals ...
  8012 dihedrals
  3 = max # of 1-2 neighbors
  4 = max # of 1-3 neighbors
  6 = max # of 1-4 neighbors
  9 = max # of special neighbors
read_dump           ../../DUMP_initial.dcd 0 x y z box no format molfile dcd /home/xclin/lib/vmd.old/plugins/LINUXAMD64/molfile
Dump reader uses molfile plugin: CHARMM,NAMD,XPLOR DCD Trajectory v1.11 by Axel Kohlmeyer, Justin Gullingsrud, John Stone
  orthogonal box = (-1000 -1000 -1000) to (1000 1000 1000)
  7872 atoms before read
  7872 atoms in snapshot
  0 atoms purged
  7872 atoms replaced
  0 atoms trimmed
  0 atoms added
  7872 atoms after read

variable            inputdir    string "/nfs/pool002/users/smliu/tetra-nucl-msm/lammps-structures/multi_nucleo-v1.0-172-4-seq-1zbb/single_nucleo/post_processing"
# Specify the different interaction styles
bond_style          hybrid list ${inputdir}/dna_list_files/in00_bond.list list/ca ${inputdir}/prot_list_files/ca_bond_list.txt
bond_style          hybrid list /nfs/pool002/users/smliu/tetra-nucl-msm/lammps-structures/multi_nucleo-v1.0-172-4-seq-1zbb/single_nucleo/post_processing/dna_list_files/in00_bond.list list/ca ${inputdir}/prot_list_files/ca_bond_list.txt
bond_style          hybrid list /nfs/pool002/users/smliu/tetra-nucl-msm/lammps-structures/multi_nucleo-v1.0-172-4-seq-1zbb/single_nucleo/post_processing/dna_list_files/in00_bond.list list/ca /nfs/pool002/users/smliu/tetra-nucl-msm/lammps-structures/multi_nucleo-v1.0-172-4-seq-1zbb/single_nucleo/post_processing/prot_list_files/ca_bond_list.txt
angle_style         hybrid stacking/3spn2   list    ${inputdir}/dna_list_files/in00_angl.list list/ca ${inputdir}/prot_list_files/ca_angle_list.txt
angle_style         hybrid stacking/3spn2   list    /nfs/pool002/users/smliu/tetra-nucl-msm/lammps-structures/multi_nucleo-v1.0-172-4-seq-1zbb/single_nucleo/post_processing/dna_list_files/in00_angl.list list/ca ${inputdir}/prot_list_files/ca_angle_list.txt
angle_style         hybrid stacking/3spn2   list    /nfs/pool002/users/smliu/tetra-nucl-msm/lammps-structures/multi_nucleo-v1.0-172-4-seq-1zbb/single_nucleo/post_processing/dna_list_files/in00_angl.list list/ca /nfs/pool002/users/smliu/tetra-nucl-msm/lammps-structures/multi_nucleo-v1.0-172-4-seq-1zbb/single_nucleo/post_processing/prot_list_files/ca_angle_list.txt
dihedral_style      hybrid list ${inputdir}/dna_list_files/in00_dihe.list list/ca ${inputdir}/prot_list_files/ca_dihed_list.txt
dihedral_style      hybrid list /nfs/pool002/users/smliu/tetra-nucl-msm/lammps-structures/multi_nucleo-v1.0-172-4-seq-1zbb/single_nucleo/post_processing/dna_list_files/in00_dihe.list list/ca ${inputdir}/prot_list_files/ca_dihed_list.txt
dihedral_style      hybrid list /nfs/pool002/users/smliu/tetra-nucl-msm/lammps-structures/multi_nucleo-v1.0-172-4-seq-1zbb/single_nucleo/post_processing/dna_list_files/in00_dihe.list list/ca /nfs/pool002/users/smliu/tetra-nucl-msm/lammps-structures/multi_nucleo-v1.0-172-4-seq-1zbb/single_nucleo/post_processing/prot_list_files/ca_dihed_list.txt


pair_style          hybrid/overlay 3spn2 bdna/curv ${T} ${salt} 18.0 50.0 list ${inputdir}/prot_list_files/ca_pair_list.txt ${cut_lj_pair} nocheck lj/cut/coul/debye ${ldbi} 10.0 ${cut_coul}
pair_style          hybrid/overlay 3spn2 bdna/curv 300 ${salt} 18.0 50.0 list ${inputdir}/prot_list_files/ca_pair_list.txt ${cut_lj_pair} nocheck lj/cut/coul/debye ${ldbi} 10.0 ${cut_coul}
pair_style          hybrid/overlay 3spn2 bdna/curv 300 150 18.0 50.0 list ${inputdir}/prot_list_files/ca_pair_list.txt ${cut_lj_pair} nocheck lj/cut/coul/debye ${ldbi} 10.0 ${cut_coul}
pair_style          hybrid/overlay 3spn2 bdna/curv 300 150 18.0 50.0 list /nfs/pool002/users/smliu/tetra-nucl-msm/lammps-structures/multi_nucleo-v1.0-172-4-seq-1zbb/single_nucleo/post_processing/prot_list_files/ca_pair_list.txt ${cut_lj_pair} nocheck lj/cut/coul/debye ${ldbi} 10.0 ${cut_coul}
pair_style          hybrid/overlay 3spn2 bdna/curv 300 150 18.0 50.0 list /nfs/pool002/users/smliu/tetra-nucl-msm/lammps-structures/multi_nucleo-v1.0-172-4-seq-1zbb/single_nucleo/post_processing/prot_list_files/ca_pair_list.txt 20 nocheck lj/cut/coul/debye ${ldbi} 10.0 ${cut_coul}
pair_style          hybrid/overlay 3spn2 bdna/curv 300 150 18.0 50.0 list /nfs/pool002/users/smliu/tetra-nucl-msm/lammps-structures/multi_nucleo-v1.0-172-4-seq-1zbb/single_nucleo/post_processing/prot_list_files/ca_pair_list.txt 20 nocheck lj/cut/coul/debye 0.127327531357269 10.0 ${cut_coul}
pair_style          hybrid/overlay 3spn2 bdna/curv 300 150 18.0 50.0 list /nfs/pool002/users/smliu/tetra-nucl-msm/lammps-structures/multi_nucleo-v1.0-172-4-seq-1zbb/single_nucleo/post_processing/prot_list_files/ca_pair_list.txt 20 nocheck lj/cut/coul/debye 0.127327531357269 10.0 31.415044
Read 9357 (0/0/0/9357) interacting pairs from /nfs/pool002/users/smliu/tetra-nucl-msm/lammps-structures/multi_nucleo-v1.0-172-4-seq-1zbb/single_nucleo/post_processing/prot_list_files/ca_pair_list.txt
pair_coeff          * * list

dielectric          ${dielec}
dielectric          78

# read in pair interaction
include           /nobackup1/binz/chromatin_fiber_CG/tetra/commons/post_processing/forcefield_pp_interaction/proteinDna_pairCoeff.in

# dna pair-wise interaction
pair_coeff      1      1 3spn2      0.23900600      4.50000000
pair_coeff      1      2 3spn2      0.23900600      5.35000000
pair_coeff      1      3 3spn2      0.23900600      4.95000000
pair_coeff      1      4 3spn2      0.23900600      5.80000000
pair_coeff      1      5 3spn2      0.23900600      4.70000000
pair_coeff      1      6 3spn2      0.23900600      5.45000000
pair_coeff      1      7 3spn2      0.23900600      4.95000000
pair_coeff      1      8 3spn2      0.23900600      5.80000000
pair_coeff      1      9 3spn2      0.23900600      4.70000000
pair_coeff      1     10 3spn2      0.23900600      5.45000000
pair_coeff      1     11 3spn2      0.23900600      4.95000000
pair_coeff      1     12 3spn2      0.23900600      5.80000000
pair_coeff      1     13 3spn2      0.23900600      4.70000000
pair_coeff      1     14 3spn2      0.23900600      5.45000000
pair_coeff      2      2 3spn2      0.23900600      6.20000000
pair_coeff      2      3 3spn2      0.23900600      5.80000000
pair_coeff      2      4 3spn2      0.23900600      6.65000000
pair_coeff      2      5 3spn2      0.23900600      5.55000000
pair_coeff      2      6 3spn2      0.23900600      6.30000000
pair_coeff      2      7 3spn2      0.23900600      5.80000000
pair_coeff      2      8 3spn2      0.23900600      6.65000000
pair_coeff      2      9 3spn2      0.23900600      5.55000000
pair_coeff      2     10 3spn2      0.23900600      6.30000000
pair_coeff      2     11 3spn2      0.23900600      5.80000000
pair_coeff      2     12 3spn2      0.23900600      6.65000000
pair_coeff      2     13 3spn2      0.23900600      5.55000000
pair_coeff      2     14 3spn2      0.23900600      6.30000000
pair_coeff      3      3 3spn2      0.23900600      5.40000000
pair_coeff      3      4 3spn2      0.23900600      6.25000000
pair_coeff      3      5 3spn2      0.23900600      5.15000000
pair_coeff      3      6 3spn2      0.23900600      5.90000000
pair_coeff      3      7 3spn2      0.23900600      5.40000000
pair_coeff      3      8 3spn2      0.23900600      6.25000000
pair_coeff      3      9 3spn2      0.23900600      5.15000000
pair_coeff      3     10 3spn2      0.23900600      5.90000000
pair_coeff      3     11 3spn2      0.23900600      5.40000000
pair_coeff      3     12 3spn2      0.23900600      6.25000000
pair_coeff      3     13 3spn2      0.23900600      5.15000000
pair_coeff      3     14 3spn2      0.23900600      5.90000000
pair_coeff      4      4 3spn2      0.23900600      7.10000000
pair_coeff      4      5 3spn2      0.23900600      6.00000000
pair_coeff      4      6 3spn2      0.23900600      6.75000000
pair_coeff      4      7 3spn2      0.23900600      6.25000000
pair_coeff      4      8 3spn2      0.23900600      7.10000000
pair_coeff      4      9 3spn2      0.23900600      6.00000000
pair_coeff      4     10 3spn2      0.23900600      6.75000000
pair_coeff      4     11 3spn2      0.23900600      6.25000000
pair_coeff      4     12 3spn2      0.23900600      7.10000000
pair_coeff      4     13 3spn2      0.23900600      6.00000000
pair_coeff      4     14 3spn2      0.23900600      6.75000000
pair_coeff      5      5 3spn2      0.23900600      4.90000000
pair_coeff      5      6 3spn2      0.23900600      5.65000000
pair_coeff      5      7 3spn2      0.23900600      5.15000000
pair_coeff      5      8 3spn2      0.23900600      6.00000000
pair_coeff      5      9 3spn2      0.23900600      4.90000000
pair_coeff      5     10 3spn2      0.23900600      5.65000000
pair_coeff      5     11 3spn2      0.23900600      5.15000000
pair_coeff      5     12 3spn2      0.23900600      6.00000000
pair_coeff      5     13 3spn2      0.23900600      4.90000000
pair_coeff      5     14 3spn2      0.23900600      5.65000000
pair_coeff      6      6 3spn2      0.23900600      6.40000000
pair_coeff      6      7 3spn2      0.23900600      5.90000000
pair_coeff      6      8 3spn2      0.23900600      6.75000000
pair_coeff      6      9 3spn2      0.23900600      5.65000000
pair_coeff      6     10 3spn2      0.23900600      6.40000000
pair_coeff      6     11 3spn2      0.23900600      5.90000000
pair_coeff      6     12 3spn2      0.23900600      6.75000000
pair_coeff      6     13 3spn2      0.23900600      5.65000000
pair_coeff      6     14 3spn2      0.23900600      6.40000000
pair_coeff      7      7 3spn2      0.23900600      5.40000000
pair_coeff      7      8 3spn2      0.23900600      6.25000000
pair_coeff      7      9 3spn2      0.23900600      5.15000000
pair_coeff      7     10 3spn2      0.23900600      5.90000000
pair_coeff      7     11 3spn2      0.23900600      5.40000000
pair_coeff      7     12 3spn2      0.23900600      6.25000000
pair_coeff      7     13 3spn2      0.23900600      5.15000000
pair_coeff      7     14 3spn2      0.23900600      5.90000000
pair_coeff      8      8 3spn2      0.23900600      7.10000000
pair_coeff      8      9 3spn2      0.23900600      6.00000000
pair_coeff      8     10 3spn2      0.23900600      6.75000000
pair_coeff      8     11 3spn2      0.23900600      6.25000000
pair_coeff      8     12 3spn2      0.23900600      7.10000000
pair_coeff      8     13 3spn2      0.23900600      6.00000000
pair_coeff      8     14 3spn2      0.23900600      6.75000000
pair_coeff      9      9 3spn2      0.23900600      4.90000000
pair_coeff      9     10 3spn2      0.23900600      5.65000000
pair_coeff      9     11 3spn2      0.23900600      5.15000000
pair_coeff      9     12 3spn2      0.23900600      6.00000000
pair_coeff      9     13 3spn2      0.23900600      4.90000000
pair_coeff      9     14 3spn2      0.23900600      5.65000000
pair_coeff     10     10 3spn2      0.23900600      6.40000000
pair_coeff     10     11 3spn2      0.23900600      5.90000000
pair_coeff     10     12 3spn2      0.23900600      6.75000000
pair_coeff     10     13 3spn2      0.23900600      5.65000000
pair_coeff     10     14 3spn2      0.23900600      6.40000000
pair_coeff     11     11 3spn2      0.23900600      5.40000000
pair_coeff     11     12 3spn2      0.23900600      6.25000000
pair_coeff     11     13 3spn2      0.23900600      5.15000000
pair_coeff     11     14 3spn2      0.23900600      5.90000000
pair_coeff     12     12 3spn2      0.23900600      7.10000000
pair_coeff     12     13 3spn2      0.23900600      6.00000000
pair_coeff     12     14 3spn2      0.23900600      6.75000000
pair_coeff     13     13 3spn2      0.23900600      4.90000000
pair_coeff     13     14 3spn2      0.23900600      5.65000000
pair_coeff     14     14 3spn2      0.23900600      6.40000000

# protein dna pair-wise interaction
pair_coeff      1     15 lj/cut/coul/debye      0.02987572      5.70000000     14.25000000     31.41504539
pair_coeff      1     16 lj/cut/coul/debye      0.02987572      5.70000000     14.25000000     31.41504539
pair_coeff      1     17 lj/cut/coul/debye      0.02987572      5.70000000     14.25000000     31.41504539
pair_coeff      1     18 lj/cut/coul/debye      0.02987572      5.70000000     14.25000000     31.41504539
pair_coeff      1     19 lj/cut/coul/debye      0.02987572      5.70000000     14.25000000     31.41504539
pair_coeff      1     20 lj/cut/coul/debye      0.02987572      5.70000000     14.25000000     31.41504539
pair_coeff      1     21 lj/cut/coul/debye      0.02987572      5.70000000     14.25000000     31.41504539
pair_coeff      1     22 lj/cut/coul/debye      0.02987572      5.70000000     14.25000000     31.41504539
pair_coeff      1     23 lj/cut/coul/debye      0.02987572      5.70000000     14.25000000     31.41504539
pair_coeff      1     24 lj/cut/coul/debye      0.02987572      5.70000000     14.25000000     31.41504539
pair_coeff      1     25 lj/cut/coul/debye      0.02987572      5.70000000     14.25000000     31.41504539
pair_coeff      1     26 lj/cut/coul/debye      0.02987572      5.70000000     14.25000000     31.41504539
pair_coeff      1     27 lj/cut/coul/debye      0.02987572      5.70000000     14.25000000     31.41504539
pair_coeff      1     28 lj/cut/coul/debye      0.02987572      5.70000000     14.25000000     31.41504539
pair_coeff      1     29 lj/cut/coul/debye      0.02987572      5.70000000     14.25000000     31.41504539
pair_coeff      1     30 lj/cut/coul/debye      0.02987572      5.70000000     14.25000000     31.41504539
pair_coeff      1     31 lj/cut/coul/debye      0.02987572      5.70000000     14.25000000     31.41504539
pair_coeff      1     32 lj/cut/coul/debye      0.02987572      5.70000000     14.25000000     31.41504539
pair_coeff      1     33 lj/cut/coul/debye      0.02987572      5.70000000     14.25000000     31.41504539
pair_coeff      1     34 lj/cut/coul/debye      0.02987572      5.70000000     14.25000000     31.41504539
pair_coeff      2     15 lj/cut/coul/debye      0.02987572      5.70000000     14.25000000     31.41504539
pair_coeff      2     16 lj/cut/coul/debye      0.02987572      5.70000000     14.25000000     31.41504539
pair_coeff      2     17 lj/cut/coul/debye      0.02987572      5.70000000     14.25000000     31.41504539
pair_coeff      2     18 lj/cut/coul/debye      0.02987572      5.70000000     14.25000000     31.41504539
pair_coeff      2     19 lj/cut/coul/debye      0.02987572      5.70000000     14.25000000     31.41504539
pair_coeff      2     20 lj/cut/coul/debye      0.02987572      5.70000000     14.25000000     31.41504539
pair_coeff      2     21 lj/cut/coul/debye      0.02987572      5.70000000     14.25000000     31.41504539
pair_coeff      2     22 lj/cut/coul/debye      0.02987572      5.70000000     14.25000000     31.41504539
pair_coeff      2     23 lj/cut/coul/debye      0.02987572      5.70000000     14.25000000     31.41504539
pair_coeff      2     24 lj/cut/coul/debye      0.02987572      5.70000000     14.25000000     31.41504539
pair_coeff      2     25 lj/cut/coul/debye      0.02987572      5.70000000     14.25000000     31.41504539
pair_coeff      2     26 lj/cut/coul/debye      0.02987572      5.70000000     14.25000000     31.41504539
pair_coeff      2     27 lj/cut/coul/debye      0.02987572      5.70000000     14.25000000     31.41504539
pair_coeff      2     28 lj/cut/coul/debye      0.02987572      5.70000000     14.25000000     31.41504539
pair_coeff      2     29 lj/cut/coul/debye      0.02987572      5.70000000     14.25000000     31.41504539
pair_coeff      2     30 lj/cut/coul/debye      0.02987572      5.70000000     14.25000000     31.41504539
pair_coeff      2     31 lj/cut/coul/debye      0.02987572      5.70000000     14.25000000     31.41504539
pair_coeff      2     32 lj/cut/coul/debye      0.02987572      5.70000000     14.25000000     31.41504539
pair_coeff      2     33 lj/cut/coul/debye      0.02987572      5.70000000     14.25000000     31.41504539
pair_coeff      2     34 lj/cut/coul/debye      0.02987572      5.70000000     14.25000000     31.41504539
pair_coeff      3     15 lj/cut/coul/debye      0.02987572      5.70000000     14.25000000     31.41504539
pair_coeff      3     16 lj/cut/coul/debye      0.02987572      5.70000000     14.25000000     31.41504539
pair_coeff      3     17 lj/cut/coul/debye      0.02987572      5.70000000     14.25000000     31.41504539
pair_coeff      3     18 lj/cut/coul/debye      0.02987572      5.70000000     14.25000000     31.41504539
pair_coeff      3     19 lj/cut/coul/debye      0.02987572      5.70000000     14.25000000     31.41504539
pair_coeff      3     20 lj/cut/coul/debye      0.02987572      5.70000000     14.25000000     31.41504539
pair_coeff      3     21 lj/cut/coul/debye      0.02987572      5.70000000     14.25000000     31.41504539
pair_coeff      3     22 lj/cut/coul/debye      0.02987572      5.70000000     14.25000000     31.41504539
pair_coeff      3     23 lj/cut/coul/debye      0.02987572      5.70000000     14.25000000     31.41504539
pair_coeff      3     24 lj/cut/coul/debye      0.02987572      5.70000000     14.25000000     31.41504539
pair_coeff      3     25 lj/cut/coul/debye      0.02987572      5.70000000     14.25000000     31.41504539
pair_coeff      3     26 lj/cut/coul/debye      0.02987572      5.70000000     14.25000000     31.41504539
pair_coeff      3     27 lj/cut/coul/debye      0.02987572      5.70000000     14.25000000     31.41504539
pair_coeff      3     28 lj/cut/coul/debye      0.02987572      5.70000000     14.25000000     31.41504539
pair_coeff      3     29 lj/cut/coul/debye      0.02987572      5.70000000     14.25000000     31.41504539
pair_coeff      3     30 lj/cut/coul/debye      0.02987572      5.70000000     14.25000000     31.41504539
pair_coeff      3     31 lj/cut/coul/debye      0.02987572      5.70000000     14.25000000     31.41504539
pair_coeff      3     32 lj/cut/coul/debye      0.02987572      5.70000000     14.25000000     31.41504539
pair_coeff      3     33 lj/cut/coul/debye      0.02987572      5.70000000     14.25000000     31.41504539
pair_coeff      3     34 lj/cut/coul/debye      0.02987572      5.70000000     14.25000000     31.41504539
pair_coeff      4     15 lj/cut/coul/debye      0.02987572      5.70000000     14.25000000     31.41504539
pair_coeff      4     16 lj/cut/coul/debye      0.02987572      5.70000000     14.25000000     31.41504539
pair_coeff      4     17 lj/cut/coul/debye      0.02987572      5.70000000     14.25000000     31.41504539
pair_coeff      4     18 lj/cut/coul/debye      0.02987572      5.70000000     14.25000000     31.41504539
pair_coeff      4     19 lj/cut/coul/debye      0.02987572      5.70000000     14.25000000     31.41504539
pair_coeff      4     20 lj/cut/coul/debye      0.02987572      5.70000000     14.25000000     31.41504539
pair_coeff      4     21 lj/cut/coul/debye      0.02987572      5.70000000     14.25000000     31.41504539
pair_coeff      4     22 lj/cut/coul/debye      0.02987572      5.70000000     14.25000000     31.41504539
pair_coeff      4     23 lj/cut/coul/debye      0.02987572      5.70000000     14.25000000     31.41504539
pair_coeff      4     24 lj/cut/coul/debye      0.02987572      5.70000000     14.25000000     31.41504539
pair_coeff      4     25 lj/cut/coul/debye      0.02987572      5.70000000     14.25000000     31.41504539
pair_coeff      4     26 lj/cut/coul/debye      0.02987572      5.70000000     14.25000000     31.41504539
pair_coeff      4     27 lj/cut/coul/debye      0.02987572      5.70000000     14.25000000     31.41504539
pair_coeff      4     28 lj/cut/coul/debye      0.02987572      5.70000000     14.25000000     31.41504539
pair_coeff      4     29 lj/cut/coul/debye      0.02987572      5.70000000     14.25000000     31.41504539
pair_coeff      4     30 lj/cut/coul/debye      0.02987572      5.70000000     14.25000000     31.41504539
pair_coeff      4     31 lj/cut/coul/debye      0.02987572      5.70000000     14.25000000     31.41504539
pair_coeff      4     32 lj/cut/coul/debye      0.02987572      5.70000000     14.25000000     31.41504539
pair_coeff      4     33 lj/cut/coul/debye      0.02987572      5.70000000     14.25000000     31.41504539
pair_coeff      4     34 lj/cut/coul/debye      0.02987572      5.70000000     14.25000000     31.41504539
pair_coeff      5     15 lj/cut/coul/debye      0.02987572      5.70000000     14.25000000     31.41504539
pair_coeff      5     16 lj/cut/coul/debye      0.02987572      5.70000000     14.25000000     31.41504539
pair_coeff      5     17 lj/cut/coul/debye      0.02987572      5.70000000     14.25000000     31.41504539
pair_coeff      5     18 lj/cut/coul/debye      0.02987572      5.70000000     14.25000000     31.41504539
pair_coeff      5     19 lj/cut/coul/debye      0.02987572      5.70000000     14.25000000     31.41504539
pair_coeff      5     20 lj/cut/coul/debye      0.02987572      5.70000000     14.25000000     31.41504539
pair_coeff      5     21 lj/cut/coul/debye      0.02987572      5.70000000     14.25000000     31.41504539
pair_coeff      5     22 lj/cut/coul/debye      0.02987572      5.70000000     14.25000000     31.41504539
pair_coeff      5     23 lj/cut/coul/debye      0.02987572      5.70000000     14.25000000     31.41504539
pair_coeff      5     24 lj/cut/coul/debye      0.02987572      5.70000000     14.25000000     31.41504539
pair_coeff      5     25 lj/cut/coul/debye      0.02987572      5.70000000     14.25000000     31.41504539
pair_coeff      5     26 lj/cut/coul/debye      0.02987572      5.70000000     14.25000000     31.41504539
pair_coeff      5     27 lj/cut/coul/debye      0.02987572      5.70000000     14.25000000     31.41504539
pair_coeff      5     28 lj/cut/coul/debye      0.02987572      5.70000000     14.25000000     31.41504539
pair_coeff      5     29 lj/cut/coul/debye      0.02987572      5.70000000     14.25000000     31.41504539
pair_coeff      5     30 lj/cut/coul/debye      0.02987572      5.70000000     14.25000000     31.41504539
pair_coeff      5     31 lj/cut/coul/debye      0.02987572      5.70000000     14.25000000     31.41504539
pair_coeff      5     32 lj/cut/coul/debye      0.02987572      5.70000000     14.25000000     31.41504539
pair_coeff      5     33 lj/cut/coul/debye      0.02987572      5.70000000     14.25000000     31.41504539
pair_coeff      5     34 lj/cut/coul/debye      0.02987572      5.70000000     14.25000000     31.41504539
pair_coeff      6     15 lj/cut/coul/debye      0.02987572      5.70000000     14.25000000     31.41504539
pair_coeff      6     16 lj/cut/coul/debye      0.02987572      5.70000000     14.25000000     31.41504539
pair_coeff      6     17 lj/cut/coul/debye      0.02987572      5.70000000     14.25000000     31.41504539
pair_coeff      6     18 lj/cut/coul/debye      0.02987572      5.70000000     14.25000000     31.41504539
pair_coeff      6     19 lj/cut/coul/debye      0.02987572      5.70000000     14.25000000     31.41504539
pair_coeff      6     20 lj/cut/coul/debye      0.02987572      5.70000000     14.25000000     31.41504539
pair_coeff      6     21 lj/cut/coul/debye      0.02987572      5.70000000     14.25000000     31.41504539
pair_coeff      6     22 lj/cut/coul/debye      0.02987572      5.70000000     14.25000000     31.41504539
pair_coeff      6     23 lj/cut/coul/debye      0.02987572      5.70000000     14.25000000     31.41504539
pair_coeff      6     24 lj/cut/coul/debye      0.02987572      5.70000000     14.25000000     31.41504539
pair_coeff      6     25 lj/cut/coul/debye      0.02987572      5.70000000     14.25000000     31.41504539
pair_coeff      6     26 lj/cut/coul/debye      0.02987572      5.70000000     14.25000000     31.41504539
pair_coeff      6     27 lj/cut/coul/debye      0.02987572      5.70000000     14.25000000     31.41504539
pair_coeff      6     28 lj/cut/coul/debye      0.02987572      5.70000000     14.25000000     31.41504539
pair_coeff      6     29 lj/cut/coul/debye      0.02987572      5.70000000     14.25000000     31.41504539
pair_coeff      6     30 lj/cut/coul/debye      0.02987572      5.70000000     14.25000000     31.41504539
pair_coeff      6     31 lj/cut/coul/debye      0.02987572      5.70000000     14.25000000     31.41504539
pair_coeff      6     32 lj/cut/coul/debye      0.02987572      5.70000000     14.25000000     31.41504539
pair_coeff      6     33 lj/cut/coul/debye      0.02987572      5.70000000     14.25000000     31.41504539
pair_coeff      6     34 lj/cut/coul/debye      0.02987572      5.70000000     14.25000000     31.41504539
pair_coeff      7     15 lj/cut/coul/debye      0.02987572      5.70000000     14.25000000     31.41504539
pair_coeff      7     16 lj/cut/coul/debye      0.02987572      5.70000000     14.25000000     31.41504539
pair_coeff      7     17 lj/cut/coul/debye      0.02987572      5.70000000     14.25000000     31.41504539
pair_coeff      7     18 lj/cut/coul/debye      0.02987572      5.70000000     14.25000000     31.41504539
pair_coeff      7     19 lj/cut/coul/debye      0.02987572      5.70000000     14.25000000     31.41504539
pair_coeff      7     20 lj/cut/coul/debye      0.02987572      5.70000000     14.25000000     31.41504539
pair_coeff      7     21 lj/cut/coul/debye      0.02987572      5.70000000     14.25000000     31.41504539
pair_coeff      7     22 lj/cut/coul/debye      0.02987572      5.70000000     14.25000000     31.41504539
pair_coeff      7     23 lj/cut/coul/debye      0.02987572      5.70000000     14.25000000     31.41504539
pair_coeff      7     24 lj/cut/coul/debye      0.02987572      5.70000000     14.25000000     31.41504539
pair_coeff      7     25 lj/cut/coul/debye      0.02987572      5.70000000     14.25000000     31.41504539
pair_coeff      7     26 lj/cut/coul/debye      0.02987572      5.70000000     14.25000000     31.41504539
pair_coeff      7     27 lj/cut/coul/debye      0.02987572      5.70000000     14.25000000     31.41504539
pair_coeff      7     28 lj/cut/coul/debye      0.02987572      5.70000000     14.25000000     31.41504539
pair_coeff      7     29 lj/cut/coul/debye      0.02987572      5.70000000     14.25000000     31.41504539
pair_coeff      7     30 lj/cut/coul/debye      0.02987572      5.70000000     14.25000000     31.41504539
pair_coeff      7     31 lj/cut/coul/debye      0.02987572      5.70000000     14.25000000     31.41504539
pair_coeff      7     32 lj/cut/coul/debye      0.02987572      5.70000000     14.25000000     31.41504539
pair_coeff      7     33 lj/cut/coul/debye      0.02987572      5.70000000     14.25000000     31.41504539
pair_coeff      7     34 lj/cut/coul/debye      0.02987572      5.70000000     14.25000000     31.41504539
pair_coeff      8     15 lj/cut/coul/debye      0.02987572      5.70000000     14.25000000     31.41504539
pair_coeff      8     16 lj/cut/coul/debye      0.02987572      5.70000000     14.25000000     31.41504539
pair_coeff      8     17 lj/cut/coul/debye      0.02987572      5.70000000     14.25000000     31.41504539
pair_coeff      8     18 lj/cut/coul/debye      0.02987572      5.70000000     14.25000000     31.41504539
pair_coeff      8     19 lj/cut/coul/debye      0.02987572      5.70000000     14.25000000     31.41504539
pair_coeff      8     20 lj/cut/coul/debye      0.02987572      5.70000000     14.25000000     31.41504539
pair_coeff      8     21 lj/cut/coul/debye      0.02987572      5.70000000     14.25000000     31.41504539
pair_coeff      8     22 lj/cut/coul/debye      0.02987572      5.70000000     14.25000000     31.41504539
pair_coeff      8     23 lj/cut/coul/debye      0.02987572      5.70000000     14.25000000     31.41504539
pair_coeff      8     24 lj/cut/coul/debye      0.02987572      5.70000000     14.25000000     31.41504539
pair_coeff      8     25 lj/cut/coul/debye      0.02987572      5.70000000     14.25000000     31.41504539
pair_coeff      8     26 lj/cut/coul/debye      0.02987572      5.70000000     14.25000000     31.41504539
pair_coeff      8     27 lj/cut/coul/debye      0.02987572      5.70000000     14.25000000     31.41504539
pair_coeff      8     28 lj/cut/coul/debye      0.02987572      5.70000000     14.25000000     31.41504539
pair_coeff      8     29 lj/cut/coul/debye      0.02987572      5.70000000     14.25000000     31.41504539
pair_coeff      8     30 lj/cut/coul/debye      0.02987572      5.70000000     14.25000000     31.41504539
pair_coeff      8     31 lj/cut/coul/debye      0.02987572      5.70000000     14.25000000     31.41504539
pair_coeff      8     32 lj/cut/coul/debye      0.02987572      5.70000000     14.25000000     31.41504539
pair_coeff      8     33 lj/cut/coul/debye      0.02987572      5.70000000     14.25000000     31.41504539
pair_coeff      8     34 lj/cut/coul/debye      0.02987572      5.70000000     14.25000000     31.41504539
pair_coeff      9     15 lj/cut/coul/debye      0.02987572      5.70000000     14.25000000     31.41504539
pair_coeff      9     16 lj/cut/coul/debye      0.02987572      5.70000000     14.25000000     31.41504539
pair_coeff      9     17 lj/cut/coul/debye      0.02987572      5.70000000     14.25000000     31.41504539
pair_coeff      9     18 lj/cut/coul/debye      0.02987572      5.70000000     14.25000000     31.41504539
pair_coeff      9     19 lj/cut/coul/debye      0.02987572      5.70000000     14.25000000     31.41504539
pair_coeff      9     20 lj/cut/coul/debye      0.02987572      5.70000000     14.25000000     31.41504539
pair_coeff      9     21 lj/cut/coul/debye      0.02987572      5.70000000     14.25000000     31.41504539
pair_coeff      9     22 lj/cut/coul/debye      0.02987572      5.70000000     14.25000000     31.41504539
pair_coeff      9     23 lj/cut/coul/debye      0.02987572      5.70000000     14.25000000     31.41504539
pair_coeff      9     24 lj/cut/coul/debye      0.02987572      5.70000000     14.25000000     31.41504539
pair_coeff      9     25 lj/cut/coul/debye      0.02987572      5.70000000     14.25000000     31.41504539
pair_coeff      9     26 lj/cut/coul/debye      0.02987572      5.70000000     14.25000000     31.41504539
pair_coeff      9     27 lj/cut/coul/debye      0.02987572      5.70000000     14.25000000     31.41504539
pair_coeff      9     28 lj/cut/coul/debye      0.02987572      5.70000000     14.25000000     31.41504539
pair_coeff      9     29 lj/cut/coul/debye      0.02987572      5.70000000     14.25000000     31.41504539
pair_coeff      9     30 lj/cut/coul/debye      0.02987572      5.70000000     14.25000000     31.41504539
pair_coeff      9     31 lj/cut/coul/debye      0.02987572      5.70000000     14.25000000     31.41504539
pair_coeff      9     32 lj/cut/coul/debye      0.02987572      5.70000000     14.25000000     31.41504539
pair_coeff      9     33 lj/cut/coul/debye      0.02987572      5.70000000     14.25000000     31.41504539
pair_coeff      9     34 lj/cut/coul/debye      0.02987572      5.70000000     14.25000000     31.41504539
pair_coeff     10     15 lj/cut/coul/debye      0.02987572      5.70000000     14.25000000     31.41504539
pair_coeff     10     16 lj/cut/coul/debye      0.02987572      5.70000000     14.25000000     31.41504539
pair_coeff     10     17 lj/cut/coul/debye      0.02987572      5.70000000     14.25000000     31.41504539
pair_coeff     10     18 lj/cut/coul/debye      0.02987572      5.70000000     14.25000000     31.41504539
pair_coeff     10     19 lj/cut/coul/debye      0.02987572      5.70000000     14.25000000     31.41504539
pair_coeff     10     20 lj/cut/coul/debye      0.02987572      5.70000000     14.25000000     31.41504539
pair_coeff     10     21 lj/cut/coul/debye      0.02987572      5.70000000     14.25000000     31.41504539
pair_coeff     10     22 lj/cut/coul/debye      0.02987572      5.70000000     14.25000000     31.41504539
pair_coeff     10     23 lj/cut/coul/debye      0.02987572      5.70000000     14.25000000     31.41504539
pair_coeff     10     24 lj/cut/coul/debye      0.02987572      5.70000000     14.25000000     31.41504539
pair_coeff     10     25 lj/cut/coul/debye      0.02987572      5.70000000     14.25000000     31.41504539
pair_coeff     10     26 lj/cut/coul/debye      0.02987572      5.70000000     14.25000000     31.41504539
pair_coeff     10     27 lj/cut/coul/debye      0.02987572      5.70000000     14.25000000     31.41504539
pair_coeff     10     28 lj/cut/coul/debye      0.02987572      5.70000000     14.25000000     31.41504539
pair_coeff     10     29 lj/cut/coul/debye      0.02987572      5.70000000     14.25000000     31.41504539
pair_coeff     10     30 lj/cut/coul/debye      0.02987572      5.70000000     14.25000000     31.41504539
pair_coeff     10     31 lj/cut/coul/debye      0.02987572      5.70000000     14.25000000     31.41504539
pair_coeff     10     32 lj/cut/coul/debye      0.02987572      5.70000000     14.25000000     31.41504539
pair_coeff     10     33 lj/cut/coul/debye      0.02987572      5.70000000     14.25000000     31.41504539
pair_coeff     10     34 lj/cut/coul/debye      0.02987572      5.70000000     14.25000000     31.41504539
pair_coeff     11     15 lj/cut/coul/debye      0.02987572      5.70000000     14.25000000     31.41504539
pair_coeff     11     16 lj/cut/coul/debye      0.02987572      5.70000000     14.25000000     31.41504539
pair_coeff     11     17 lj/cut/coul/debye      0.02987572      5.70000000     14.25000000     31.41504539
pair_coeff     11     18 lj/cut/coul/debye      0.02987572      5.70000000     14.25000000     31.41504539
pair_coeff     11     19 lj/cut/coul/debye      0.02987572      5.70000000     14.25000000     31.41504539
pair_coeff     11     20 lj/cut/coul/debye      0.02987572      5.70000000     14.25000000     31.41504539
pair_coeff     11     21 lj/cut/coul/debye      0.02987572      5.70000000     14.25000000     31.41504539
pair_coeff     11     22 lj/cut/coul/debye      0.02987572      5.70000000     14.25000000     31.41504539
pair_coeff     11     23 lj/cut/coul/debye      0.02987572      5.70000000     14.25000000     31.41504539
pair_coeff     11     24 lj/cut/coul/debye      0.02987572      5.70000000     14.25000000     31.41504539
pair_coeff     11     25 lj/cut/coul/debye      0.02987572      5.70000000     14.25000000     31.41504539
pair_coeff     11     26 lj/cut/coul/debye      0.02987572      5.70000000     14.25000000     31.41504539
pair_coeff     11     27 lj/cut/coul/debye      0.02987572      5.70000000     14.25000000     31.41504539
pair_coeff     11     28 lj/cut/coul/debye      0.02987572      5.70000000     14.25000000     31.41504539
pair_coeff     11     29 lj/cut/coul/debye      0.02987572      5.70000000     14.25000000     31.41504539
pair_coeff     11     30 lj/cut/coul/debye      0.02987572      5.70000000     14.25000000     31.41504539
pair_coeff     11     31 lj/cut/coul/debye      0.02987572      5.70000000     14.25000000     31.41504539
pair_coeff     11     32 lj/cut/coul/debye      0.02987572      5.70000000     14.25000000     31.41504539
pair_coeff     11     33 lj/cut/coul/debye      0.02987572      5.70000000     14.25000000     31.41504539
pair_coeff     11     34 lj/cut/coul/debye      0.02987572      5.70000000     14.25000000     31.41504539
pair_coeff     12     15 lj/cut/coul/debye      0.02987572      5.70000000     14.25000000     31.41504539
pair_coeff     12     16 lj/cut/coul/debye      0.02987572      5.70000000     14.25000000     31.41504539
pair_coeff     12     17 lj/cut/coul/debye      0.02987572      5.70000000     14.25000000     31.41504539
pair_coeff     12     18 lj/cut/coul/debye      0.02987572      5.70000000     14.25000000     31.41504539
pair_coeff     12     19 lj/cut/coul/debye      0.02987572      5.70000000     14.25000000     31.41504539
pair_coeff     12     20 lj/cut/coul/debye      0.02987572      5.70000000     14.25000000     31.41504539
pair_coeff     12     21 lj/cut/coul/debye      0.02987572      5.70000000     14.25000000     31.41504539
pair_coeff     12     22 lj/cut/coul/debye      0.02987572      5.70000000     14.25000000     31.41504539
pair_coeff     12     23 lj/cut/coul/debye      0.02987572      5.70000000     14.25000000     31.41504539
pair_coeff     12     24 lj/cut/coul/debye      0.02987572      5.70000000     14.25000000     31.41504539
pair_coeff     12     25 lj/cut/coul/debye      0.02987572      5.70000000     14.25000000     31.41504539
pair_coeff     12     26 lj/cut/coul/debye      0.02987572      5.70000000     14.25000000     31.41504539
pair_coeff     12     27 lj/cut/coul/debye      0.02987572      5.70000000     14.25000000     31.41504539
pair_coeff     12     28 lj/cut/coul/debye      0.02987572      5.70000000     14.25000000     31.41504539
pair_coeff     12     29 lj/cut/coul/debye      0.02987572      5.70000000     14.25000000     31.41504539
pair_coeff     12     30 lj/cut/coul/debye      0.02987572      5.70000000     14.25000000     31.41504539
pair_coeff     12     31 lj/cut/coul/debye      0.02987572      5.70000000     14.25000000     31.41504539
pair_coeff     12     32 lj/cut/coul/debye      0.02987572      5.70000000     14.25000000     31.41504539
pair_coeff     12     33 lj/cut/coul/debye      0.02987572      5.70000000     14.25000000     31.41504539
pair_coeff     12     34 lj/cut/coul/debye      0.02987572      5.70000000     14.25000000     31.41504539
pair_coeff     13     15 lj/cut/coul/debye      0.02987572      5.70000000     14.25000000     31.41504539
pair_coeff     13     16 lj/cut/coul/debye      0.02987572      5.70000000     14.25000000     31.41504539
pair_coeff     13     17 lj/cut/coul/debye      0.02987572      5.70000000     14.25000000     31.41504539
pair_coeff     13     18 lj/cut/coul/debye      0.02987572      5.70000000     14.25000000     31.41504539
pair_coeff     13     19 lj/cut/coul/debye      0.02987572      5.70000000     14.25000000     31.41504539
pair_coeff     13     20 lj/cut/coul/debye      0.02987572      5.70000000     14.25000000     31.41504539
pair_coeff     13     21 lj/cut/coul/debye      0.02987572      5.70000000     14.25000000     31.41504539
pair_coeff     13     22 lj/cut/coul/debye      0.02987572      5.70000000     14.25000000     31.41504539
pair_coeff     13     23 lj/cut/coul/debye      0.02987572      5.70000000     14.25000000     31.41504539
pair_coeff     13     24 lj/cut/coul/debye      0.02987572      5.70000000     14.25000000     31.41504539
pair_coeff     13     25 lj/cut/coul/debye      0.02987572      5.70000000     14.25000000     31.41504539
pair_coeff     13     26 lj/cut/coul/debye      0.02987572      5.70000000     14.25000000     31.41504539
pair_coeff     13     27 lj/cut/coul/debye      0.02987572      5.70000000     14.25000000     31.41504539
pair_coeff     13     28 lj/cut/coul/debye      0.02987572      5.70000000     14.25000000     31.41504539
pair_coeff     13     29 lj/cut/coul/debye      0.02987572      5.70000000     14.25000000     31.41504539
pair_coeff     13     30 lj/cut/coul/debye      0.02987572      5.70000000     14.25000000     31.41504539
pair_coeff     13     31 lj/cut/coul/debye      0.02987572      5.70000000     14.25000000     31.41504539
pair_coeff     13     32 lj/cut/coul/debye      0.02987572      5.70000000     14.25000000     31.41504539
pair_coeff     13     33 lj/cut/coul/debye      0.02987572      5.70000000     14.25000000     31.41504539
pair_coeff     13     34 lj/cut/coul/debye      0.02987572      5.70000000     14.25000000     31.41504539
pair_coeff     14     15 lj/cut/coul/debye      0.02987572      5.70000000     14.25000000     31.41504539
pair_coeff     14     16 lj/cut/coul/debye      0.02987572      5.70000000     14.25000000     31.41504539
pair_coeff     14     17 lj/cut/coul/debye      0.02987572      5.70000000     14.25000000     31.41504539
pair_coeff     14     18 lj/cut/coul/debye      0.02987572      5.70000000     14.25000000     31.41504539
pair_coeff     14     19 lj/cut/coul/debye      0.02987572      5.70000000     14.25000000     31.41504539
pair_coeff     14     20 lj/cut/coul/debye      0.02987572      5.70000000     14.25000000     31.41504539
pair_coeff     14     21 lj/cut/coul/debye      0.02987572      5.70000000     14.25000000     31.41504539
pair_coeff     14     22 lj/cut/coul/debye      0.02987572      5.70000000     14.25000000     31.41504539
pair_coeff     14     23 lj/cut/coul/debye      0.02987572      5.70000000     14.25000000     31.41504539
pair_coeff     14     24 lj/cut/coul/debye      0.02987572      5.70000000     14.25000000     31.41504539
pair_coeff     14     25 lj/cut/coul/debye      0.02987572      5.70000000     14.25000000     31.41504539
pair_coeff     14     26 lj/cut/coul/debye      0.02987572      5.70000000     14.25000000     31.41504539
pair_coeff     14     27 lj/cut/coul/debye      0.02987572      5.70000000     14.25000000     31.41504539
pair_coeff     14     28 lj/cut/coul/debye      0.02987572      5.70000000     14.25000000     31.41504539
pair_coeff     14     29 lj/cut/coul/debye      0.02987572      5.70000000     14.25000000     31.41504539
pair_coeff     14     30 lj/cut/coul/debye      0.02987572      5.70000000     14.25000000     31.41504539
pair_coeff     14     31 lj/cut/coul/debye      0.02987572      5.70000000     14.25000000     31.41504539
pair_coeff     14     32 lj/cut/coul/debye      0.02987572      5.70000000     14.25000000     31.41504539
pair_coeff     14     33 lj/cut/coul/debye      0.02987572      5.70000000     14.25000000     31.41504539
pair_coeff     14     34 lj/cut/coul/debye      0.02987572      5.70000000     14.25000000     31.41504539
# protein protein pair-wise interaction
pair_coeff     15     15 lj/cut/coul/debye      0.10425138      5.00000000     12.50000000     31.41504539
pair_coeff     15     16 lj/cut/coul/debye      0.07013971      5.00000000     12.50000000     31.41504539
pair_coeff     15     17 lj/cut/coul/debye      0.07052299      5.00000000     12.50000000     31.41504539
pair_coeff     15     18 lj/cut/coul/debye      0.06515711      5.00000000     12.50000000     31.41504539
pair_coeff     15     19 lj/cut/coul/debye      0.13682993      5.00000000     12.50000000     31.41504539
pair_coeff     15     20 lj/cut/coul/debye      0.05787485      5.00000000     12.50000000     31.41504539
pair_coeff     15     21 lj/cut/coul/debye      0.07243938      5.00000000     12.50000000     31.41504539
pair_coeff     15     22 lj/cut/coul/debye      0.08853702      5.00000000     12.50000000     31.41504539
pair_coeff     15     23 lj/cut/coul/debye      0.09236979      5.00000000     12.50000000     31.41504539
pair_coeff     15     24 lj/cut/coul/debye      0.17554092      5.00000000     12.50000000     31.41504539
pair_coeff     15     25 lj/cut/coul/debye      0.18818907      5.00000000     12.50000000     31.41504539
pair_coeff     15     26 lj/cut/coul/debye      0.05020930      5.00000000     12.50000000     31.41504539
pair_coeff     15     27 lj/cut/coul/debye      0.15101119      5.00000000     12.50000000     31.41504539
pair_coeff     15     28 lj/cut/coul/debye      0.18435630      5.00000000     12.50000000     31.41504539
pair_coeff     15     29 lj/cut/coul/debye      0.07780526      5.00000000     12.50000000     31.41504539
pair_coeff     15     30 lj/cut/coul/debye      0.07703870      5.00000000     12.50000000     31.41504539
pair_coeff     15     31 lj/cut/coul/debye      0.08892029      5.00000000     12.50000000     31.41504539
pair_coeff     15     32 lj/cut/coul/debye      0.14641186      5.00000000     12.50000000     31.41504539
pair_coeff     15     33 lj/cut/coul/debye      0.12878111      5.00000000     12.50000000     31.41504539
pair_coeff     15     34 lj/cut/coul/debye      0.15484396      5.00000000     12.50000000     31.41504539
pair_coeff     16     16 lj/cut/coul/debye      0.05940795      5.00000000     12.50000000     31.41504539
pair_coeff     16     17 lj/cut/coul/debye      0.06285745      5.00000000     12.50000000     31.41504539
pair_coeff     16     18 lj/cut/coul/debye      0.08777046      5.00000000     12.50000000     31.41504539
pair_coeff     16     19 lj/cut/coul/debye      0.09850222      5.00000000     12.50000000     31.41504539
pair_coeff     16     20 lj/cut/coul/debye      0.08700391      5.00000000     12.50000000     31.41504539
pair_coeff     16     21 lj/cut/coul/debye      0.06898988      5.00000000     12.50000000     31.41504539
pair_coeff     16     22 lj/cut/coul/debye      0.06592367      5.00000000     12.50000000     31.41504539
pair_coeff     16     23 lj/cut/coul/debye      0.08278786      5.00000000     12.50000000     31.41504539
pair_coeff     16     24 lj/cut/coul/debye      0.13912960      5.00000000     12.50000000     31.41504539
pair_coeff     16     25 lj/cut/coul/debye      0.15446068      5.00000000     12.50000000     31.41504539
pair_coeff     16     26 lj/cut/coul/debye      0.02261335      5.00000000     12.50000000     31.41504539
pair_coeff     16     27 lj/cut/coul/debye      0.11958246      5.00000000     12.50000000     31.41504539
pair_coeff     16     28 lj/cut/coul/debye      0.15254430      5.00000000     12.50000000     31.41504539
pair_coeff     16     29 lj/cut/coul/debye      0.06515711      5.00000000     12.50000000     31.41504539
pair_coeff     16     30 lj/cut/coul/debye      0.06209089      5.00000000     12.50000000     31.41504539
pair_coeff     16     31 lj/cut/coul/debye      0.07282265      5.00000000     12.50000000     31.41504539
pair_coeff     16     32 lj/cut/coul/debye      0.13069750      5.00000000     12.50000000     31.41504539
pair_coeff     16     33 lj/cut/coul/debye      0.12111557      5.00000000     12.50000000     31.41504539
pair_coeff     16     34 lj/cut/coul/debye      0.11766608      5.00000000     12.50000000     31.41504539
pair_coeff     17     17 lj/cut/coul/debye      0.06439056      5.00000000     12.50000000     31.41504539
pair_coeff     17     18 lj/cut/coul/debye      0.06439056      5.00000000     12.50000000     31.41504539
pair_coeff     17     19 lj/cut/coul/debye      0.09926878      5.00000000     12.50000000     31.41504539
pair_coeff     17     20 lj/cut/coul/debye      0.05787485      5.00000000     12.50000000     31.41504539
pair_coeff     17     21 lj/cut/coul/debye      0.06554039      5.00000000     12.50000000     31.41504539
pair_coeff     17     22 lj/cut/coul/debye      0.06669022      5.00000000     12.50000000     31.41504539
pair_coeff     17     23 lj/cut/coul/debye      0.07972164      5.00000000     12.50000000     31.41504539
pair_coeff     17     24 lj/cut/coul/debye      0.12418179      5.00000000     12.50000000     31.41504539
pair_coeff     17     25 lj/cut/coul/debye      0.14334565      5.00000000     12.50000000     31.41504539
pair_coeff     17     26 lj/cut/coul/debye      0.04637653      5.00000000     12.50000000     31.41504539
pair_coeff     17     27 lj/cut/coul/debye      0.11306675      5.00000000     12.50000000     31.41504539
pair_coeff     17     28 lj/cut/coul/debye      0.14372892      5.00000000     12.50000000     31.41504539
pair_coeff     17     29 lj/cut/coul/debye      0.05864140      5.00000000     12.50000000     31.41504539
pair_coeff     17     30 lj/cut/coul/debye      0.06055779      5.00000000     12.50000000     31.41504539
pair_coeff     17     31 lj/cut/coul/debye      0.07205610      5.00000000     12.50000000     31.41504539
pair_coeff     17     32 lj/cut/coul/debye      0.11766608      5.00000000     12.50000000     31.41504539
pair_coeff     17     33 lj/cut/coul/debye      0.10578449      5.00000000     12.50000000     31.41504539
pair_coeff     17     34 lj/cut/coul/debye      0.10846743      5.00000000     12.50000000     31.41504539
pair_coeff     18     18 lj/cut/coul/debye      0.04637653      5.00000000     12.50000000     31.41504539
pair_coeff     18     19 lj/cut/coul/debye      0.09236979      5.00000000     12.50000000     31.41504539
pair_coeff     18     20 lj/cut/coul/debye      0.03909427      5.00000000     12.50000000     31.41504539
pair_coeff     18     21 lj/cut/coul/debye      0.05595846      5.00000000     12.50000000     31.41504539
pair_coeff     18     22 lj/cut/coul/debye      0.06094106      5.00000000     12.50000000     31.41504539
pair_coeff     18     23 lj/cut/coul/debye      0.08892029      5.00000000     12.50000000     31.41504539
pair_coeff     18     24 lj/cut/coul/debye      0.12149885      5.00000000     12.50000000     31.41504539
pair_coeff     18     25 lj/cut/coul/debye      0.13031422      5.00000000     12.50000000     31.41504539
pair_coeff     18     26 lj/cut/coul/debye      0.06439056      5.00000000     12.50000000     31.41504539
pair_coeff     18     27 lj/cut/coul/debye      0.09850222      5.00000000     12.50000000     31.41504539
pair_coeff     18     28 lj/cut/coul/debye      0.13338044      5.00000000     12.50000000     31.41504539
pair_coeff     18     29 lj/cut/coul/debye      0.05097586      5.00000000     12.50000000     31.41504539
pair_coeff     18     30 lj/cut/coul/debye      0.06247417      5.00000000     12.50000000     31.41504539
pair_coeff     18     31 lj/cut/coul/debye      0.06898988      5.00000000     12.50000000     31.41504539
pair_coeff     18     32 lj/cut/coul/debye      0.10885070      5.00000000     12.50000000     31.41504539
pair_coeff     18     33 lj/cut/coul/debye      0.10578449      5.00000000     12.50000000     31.41504539
pair_coeff     18     34 lj/cut/coul/debye      0.09505273      5.00000000     12.50000000     31.41504539
pair_coeff     19     19 lj/cut/coul/debye      0.20850276      5.00000000     12.50000000     31.41504539
pair_coeff     19     20 lj/cut/coul/debye      0.08700391      5.00000000     12.50000000     31.41504539
pair_coeff     19     21 lj/cut/coul/debye      0.10923398      5.00000000     12.50000000     31.41504539
pair_coeff     19     22 lj/cut/coul/debye      0.12111557      5.00000000     12.50000000     31.41504539
pair_coeff     19     23 lj/cut/coul/debye      0.13797977      5.00000000     12.50000000     31.41504539
pair_coeff     19     24 lj/cut/coul/debye      0.21080242      5.00000000     12.50000000     31.41504539
pair_coeff     19     25 lj/cut/coul/debye      0.22345057      5.00000000     12.50000000     31.41504539
pair_coeff     19     26 lj/cut/coul/debye      0.07473904      5.00000000     12.50000000     31.41504539
pair_coeff     19     27 lj/cut/coul/debye      0.19125529      5.00000000     12.50000000     31.41504539
pair_coeff     19     28 lj/cut/coul/debye      0.22230073      5.00000000     12.50000000     31.41504539
pair_coeff     19     29 lj/cut/coul/debye      0.11766608      5.00000000     12.50000000     31.41504539
pair_coeff     19     30 lj/cut/coul/debye      0.10961726      5.00000000     12.50000000     31.41504539
pair_coeff     19     31 lj/cut/coul/debye      0.11919919      5.00000000     12.50000000     31.41504539
pair_coeff     19     32 lj/cut/coul/debye      0.18972218      5.00000000     12.50000000     31.41504539
pair_coeff     19     33 lj/cut/coul/debye      0.15944328      5.00000000     12.50000000     31.41504539
pair_coeff     19     34 lj/cut/coul/debye      0.19010546      5.00000000     12.50000000     31.41504539
pair_coeff     20     20 lj/cut/coul/debye      0.03487822      5.00000000     12.50000000     31.41504539
pair_coeff     20     21 lj/cut/coul/debye      0.05442535      5.00000000     12.50000000     31.41504539
pair_coeff     20     22 lj/cut/coul/debye      0.04675981      5.00000000     12.50000000     31.41504539
pair_coeff     20     23 lj/cut/coul/debye      0.08240458      5.00000000     12.50000000     31.41504539
pair_coeff     20     24 lj/cut/coul/debye      0.12533162      5.00000000     12.50000000     31.41504539
pair_coeff     20     25 lj/cut/coul/debye      0.13759649      5.00000000     12.50000000     31.41504539
pair_coeff     20     26 lj/cut/coul/debye      0.06898988      5.00000000     12.50000000     31.41504539
pair_coeff     20     27 lj/cut/coul/debye      0.11076709      5.00000000     12.50000000     31.41504539
pair_coeff     20     28 lj/cut/coul/debye      0.13644666      5.00000000     12.50000000     31.41504539
pair_coeff     20     29 lj/cut/coul/debye      0.04829292      5.00000000     12.50000000     31.41504539
pair_coeff     20     30 lj/cut/coul/debye      0.05672501      5.00000000     12.50000000     31.41504539
pair_coeff     20     31 lj/cut/coul/debye      0.06669022      5.00000000     12.50000000     31.41504539
pair_coeff     20     32 lj/cut/coul/debye      0.11459986      5.00000000     12.50000000     31.41504539
pair_coeff     20     33 lj/cut/coul/debye      0.10693432      5.00000000     12.50000000     31.41504539
pair_coeff     20     34 lj/cut/coul/debye      0.10233499      5.00000000     12.50000000     31.41504539
pair_coeff     21     21 lj/cut/coul/debye      0.05902468      5.00000000     12.50000000     31.41504539
pair_coeff     21     22 lj/cut/coul/debye      0.06362400      5.00000000     12.50000000     31.41504539
pair_coeff     21     23 lj/cut/coul/debye      0.07588887      5.00000000     12.50000000     31.41504539
pair_coeff     21     24 lj/cut/coul/debye      0.14066271      5.00000000     12.50000000     31.41504539
pair_coeff     21     25 lj/cut/coul/debye      0.15484396      5.00000000     12.50000000     31.41504539
pair_coeff     21     26 lj/cut/coul/debye      0.04944275      5.00000000     12.50000000     31.41504539
pair_coeff     21     27 lj/cut/coul/debye      0.12648145      5.00000000     12.50000000     31.41504539
pair_coeff     21     28 lj/cut/coul/debye      0.15714362      5.00000000     12.50000000     31.41504539
pair_coeff     21     29 lj/cut/coul/debye      0.06630694      5.00000000     12.50000000     31.41504539
pair_coeff     21     30 lj/cut/coul/debye      0.05710829      5.00000000     12.50000000     31.41504539
pair_coeff     21     31 lj/cut/coul/debye      0.07282265      5.00000000     12.50000000     31.41504539
pair_coeff     21     32 lj/cut/coul/debye      0.11919919      5.00000000     12.50000000     31.41504539
pair_coeff     21     33 lj/cut/coul/debye      0.11383331      5.00000000     12.50000000     31.41504539
pair_coeff     21     34 lj/cut/coul/debye      0.11766608      5.00000000     12.50000000     31.41504539
pair_coeff     22     22 lj/cut/coul/debye      0.08585408      5.00000000     12.50000000     31.41504539
pair_coeff     22     23 lj/cut/coul/debye      0.08240458      5.00000000     12.50000000     31.41504539
pair_coeff     22     24 lj/cut/coul/debye      0.14487875      5.00000000     12.50000000     31.41504539
pair_coeff     22     25 lj/cut/coul/debye      0.15944328      5.00000000     12.50000000     31.41504539
pair_coeff     22     26 lj/cut/coul/debye      0.04407687      5.00000000     12.50000000     31.41504539
pair_coeff     22     27 lj/cut/coul/debye      0.12993095      5.00000000     12.50000000     31.41504539
pair_coeff     22     28 lj/cut/coul/debye      0.15829345      5.00000000     12.50000000     31.41504539
pair_coeff     22     29 lj/cut/coul/debye      0.07167282      5.00000000     12.50000000     31.41504539
pair_coeff     22     30 lj/cut/coul/debye      0.06975644      5.00000000     12.50000000     31.41504539
pair_coeff     22     31 lj/cut/coul/debye      0.07972164      5.00000000     12.50000000     31.41504539
pair_coeff     22     32 lj/cut/coul/debye      0.13108078      5.00000000     12.50000000     31.41504539
pair_coeff     22     33 lj/cut/coul/debye      0.11536642      5.00000000     12.50000000     31.41504539
pair_coeff     22     34 lj/cut/coul/debye      0.12954767      5.00000000     12.50000000     31.41504539
pair_coeff     23     23 lj/cut/coul/debye      0.11689952      5.00000000     12.50000000     31.41504539
pair_coeff     23     24 lj/cut/coul/debye      0.15867673      5.00000000     12.50000000     31.41504539
pair_coeff     23     25 lj/cut/coul/debye      0.17400782      5.00000000     12.50000000     31.41504539
pair_coeff     23     26 lj/cut/coul/debye      0.05174241      5.00000000     12.50000000     31.41504539
pair_coeff     23     27 lj/cut/coul/debye      0.15254430      5.00000000     12.50000000     31.41504539
pair_coeff     23     28 lj/cut/coul/debye      0.18282319      5.00000000     12.50000000     31.41504539
pair_coeff     23     29 lj/cut/coul/debye      0.08623735      5.00000000     12.50000000     31.41504539
pair_coeff     23     30 lj/cut/coul/debye      0.08087147      5.00000000     12.50000000     31.41504539
pair_coeff     23     31 lj/cut/coul/debye      0.09275306      5.00000000     12.50000000     31.41504539
pair_coeff     23     32 lj/cut/coul/debye      0.15254430      5.00000000     12.50000000     31.41504539
pair_coeff     23     33 lj/cut/coul/debye      0.13491355      5.00000000     12.50000000     31.41504539
pair_coeff     23     34 lj/cut/coul/debye      0.13721321      5.00000000     12.50000000     31.41504539
pair_coeff     24     24 lj/cut/coul/debye      0.25066324      5.00000000     12.50000000     31.41504539
pair_coeff     24     25 lj/cut/coul/debye      0.26982710      5.00000000     12.50000000     31.41504539
pair_coeff     24     26 lj/cut/coul/debye      0.11536642      5.00000000     12.50000000     31.41504539
pair_coeff     24     27 lj/cut/coul/debye      0.23073283      5.00000000     12.50000000     31.41504539
pair_coeff     24     28 lj/cut/coul/debye      0.26216156      5.00000000     12.50000000     31.41504539
pair_coeff     24     29 lj/cut/coul/debye      0.14411220      5.00000000     12.50000000     31.41504539
pair_coeff     24     30 lj/cut/coul/debye      0.13491355      5.00000000     12.50000000     31.41504539
pair_coeff     24     31 lj/cut/coul/debye      0.15446068      5.00000000     12.50000000     31.41504539
pair_coeff     24     32 lj/cut/coul/debye      0.22153418      5.00000000     12.50000000     31.41504539
pair_coeff     24     33 lj/cut/coul/debye      0.20122049      5.00000000     12.50000000     31.41504539
pair_coeff     24     34 lj/cut/coul/debye      0.23188266      5.00000000     12.50000000     31.41504539
pair_coeff     25     25 lj/cut/coul/debye      0.28247524      5.00000000     12.50000000     31.41504539
pair_coeff     25     26 lj/cut/coul/debye      0.12916439      5.00000000     12.50000000     31.41504539
pair_coeff     25     27 lj/cut/coul/debye      0.24568064      5.00000000     12.50000000     31.41504539
pair_coeff     25     28 lj/cut/coul/debye      0.27902575      5.00000000     12.50000000     31.41504539
pair_coeff     25     29 lj/cut/coul/debye      0.16097639      5.00000000     12.50000000     31.41504539
pair_coeff     25     30 lj/cut/coul/debye      0.15024463      5.00000000     12.50000000     31.41504539
pair_coeff     25     31 lj/cut/coul/debye      0.16634227      5.00000000     12.50000000     31.41504539
pair_coeff     25     32 lj/cut/coul/debye      0.23533216      5.00000000     12.50000000     31.41504539
pair_coeff     25     33 lj/cut/coul/debye      0.21731813      5.00000000     12.50000000     31.41504539
pair_coeff     25     34 lj/cut/coul/debye      0.24836358      5.00000000     12.50000000     31.41504539
pair_coeff     26     26 lj/cut/coul/debye      0.00459933      5.00000000     12.50000000     31.41504539
pair_coeff     26     27 lj/cut/coul/debye      0.09505273      5.00000000     12.50000000     31.41504539
pair_coeff     26     28 lj/cut/coul/debye      0.12878111      5.00000000     12.50000000     31.41504539
pair_coeff     26     29 lj/cut/coul/debye      0.03717788      5.00000000     12.50000000     31.41504539
pair_coeff     26     30 lj/cut/coul/debye      0.04024410      5.00000000     12.50000000     31.41504539
pair_coeff     26     31 lj/cut/coul/debye      0.05020930      5.00000000     12.50000000     31.41504539
pair_coeff     26     32 lj/cut/coul/debye      0.10310155      5.00000000     12.50000000     31.41504539
pair_coeff     26     33 lj/cut/coul/debye      0.09965205      5.00000000     12.50000000     31.41504539
pair_coeff     26     34 lj/cut/coul/debye      0.09543600      5.00000000     12.50000000     31.41504539
pair_coeff     27     27 lj/cut/coul/debye      0.20926931      5.00000000     12.50000000     31.41504539
pair_coeff     27     28 lj/cut/coul/debye      0.25142980      5.00000000     12.50000000     31.41504539
pair_coeff     27     29 lj/cut/coul/debye      0.13223061      5.00000000     12.50000000     31.41504539
pair_coeff     27     30 lj/cut/coul/debye      0.11613297      5.00000000     12.50000000     31.41504539
pair_coeff     27     31 lj/cut/coul/debye      0.13453027      5.00000000     12.50000000     31.41504539
pair_coeff     27     32 lj/cut/coul/debye      0.21271881      5.00000000     12.50000000     31.41504539
pair_coeff     27     33 lj/cut/coul/debye      0.18818907      5.00000000     12.50000000     31.41504539
pair_coeff     27     34 lj/cut/coul/debye      0.20390343      5.00000000     12.50000000     31.41504539
pair_coeff     28     28 lj/cut/coul/debye      0.27825919      5.00000000     12.50000000     31.41504539
pair_coeff     28     29 lj/cut/coul/debye      0.16289278      5.00000000     12.50000000     31.41504539
pair_coeff     28     30 lj/cut/coul/debye      0.15407741      5.00000000     12.50000000     31.41504539
pair_coeff     28     31 lj/cut/coul/debye      0.16404261      5.00000000     12.50000000     31.41504539
pair_coeff     28     32 lj/cut/coul/debye      0.23609871      5.00000000     12.50000000     31.41504539
pair_coeff     28     33 lj/cut/coul/debye      0.21693485      5.00000000     12.50000000     31.41504539
pair_coeff     28     34 lj/cut/coul/debye      0.24108131      5.00000000     12.50000000     31.41504539
pair_coeff     29     29 lj/cut/coul/debye      0.06707350      5.00000000     12.50000000     31.41504539
pair_coeff     29     30 lj/cut/coul/debye      0.06017451      5.00000000     12.50000000     31.41504539
pair_coeff     29     31 lj/cut/coul/debye      0.07282265      5.00000000     12.50000000     31.41504539
pair_coeff     29     32 lj/cut/coul/debye      0.14296237      5.00000000     12.50000000     31.41504539
pair_coeff     29     33 lj/cut/coul/debye      0.12226540      5.00000000     12.50000000     31.41504539
pair_coeff     29     34 lj/cut/coul/debye      0.12724801      5.00000000     12.50000000     31.41504539
pair_coeff     30     30 lj/cut/coul/debye      0.06400728      5.00000000     12.50000000     31.41504539
pair_coeff     30     31 lj/cut/coul/debye      0.07512232      5.00000000     12.50000000     31.41504539
pair_coeff     30     32 lj/cut/coul/debye      0.11459986      5.00000000     12.50000000     31.41504539
pair_coeff     30     33 lj/cut/coul/debye      0.10655104      5.00000000     12.50000000     31.41504539
pair_coeff     30     34 lj/cut/coul/debye      0.11689952      5.00000000     12.50000000     31.41504539
pair_coeff     31     31 lj/cut/coul/debye      0.08125475      5.00000000     12.50000000     31.41504539
pair_coeff     31     32 lj/cut/coul/debye      0.12341523      5.00000000     12.50000000     31.41504539
pair_coeff     31     33 lj/cut/coul/debye      0.11536642      5.00000000     12.50000000     31.41504539
pair_coeff     31     34 lj/cut/coul/debye      0.13261389      5.00000000     12.50000000     31.41504539
pair_coeff     32     32 lj/cut/coul/debye      0.19393823      5.00000000     12.50000000     31.41504539
pair_coeff     32     33 lj/cut/coul/debye      0.17860714      5.00000000     12.50000000     31.41504539
pair_coeff     32     34 lj/cut/coul/debye      0.19853755      5.00000000     12.50000000     31.41504539
pair_coeff     33     33 lj/cut/coul/debye      0.15982656      5.00000000     12.50000000     31.41504539
pair_coeff     33     34 lj/cut/coul/debye      0.17707403      5.00000000     12.50000000     31.41504539
pair_coeff     34     34 lj/cut/coul/debye      0.21156897      5.00000000     12.50000000     31.41504539

## shift the cutoff energy
pair_modify         shift yes

include           ${inputdir}/forcefield/bonded_ff.txt
include           /nfs/pool002/users/smliu/tetra-nucl-msm/lammps-structures/multi_nucleo-v1.0-172-4-seq-1zbb/single_nucleo/post_processing/forcefield/bonded_ff.txt
bond_coeff          1       list
bond_coeff          2       list/ca


angle_coeff     1	list
angle_coeff 	2	stacking/3spn2	3.303059	3.580000	100.130000	3.000000	6.000000
angle_coeff 	3	stacking/3spn2	3.597036	3.560000	90.480000	3.000000	6.000000
angle_coeff 	4	stacking/3spn2	3.183556	3.850000	104.390000	3.000000	6.000000
angle_coeff 	5	stacking/3spn2	3.781071	3.450000	93.230000	3.000000	6.000000
angle_coeff 	6	stacking/3spn2	2.186902	4.150000	102.590000	3.000000	6.000000
angle_coeff 	7	stacking/3spn2	2.973231	3.930000	93.320000	3.000000	6.000000
angle_coeff 	8	stacking/3spn2	2.289675	4.320000	103.700000	3.000000	6.000000
angle_coeff 	9	stacking/3spn2	3.133365	3.870000	94.550000	3.000000	6.000000
angle_coeff 	10	stacking/3spn2	3.288719	3.510000	95.450000	3.000000	6.000000
angle_coeff 	11	stacking/3spn2	3.487094	3.470000	87.630000	3.000000	6.000000
angle_coeff 	12	stacking/3spn2	3.530115	3.670000	106.360000	3.000000	6.000000
angle_coeff 	13	stacking/3spn2	3.625717	3.420000	83.120000	3.000000	6.000000
angle_coeff 	14	stacking/3spn2	2.210803	4.150000	102.690000	3.000000	6.000000
angle_coeff 	15	stacking/3spn2	2.968451	3.990000	96.050000	3.000000	6.000000
angle_coeff 	16	stacking/3spn2	2.110421	4.340000	100.460000	3.000000	6.000000
angle_coeff 	17	stacking/3spn2	3.348470	3.840000	100.680000	3.000000	6.000000
angle_coeff     18      list/ca


dihedral_coeff	    1	list
dihedral_coeff	    2	list/ca

#   ---         group definitions       --- #
include             ${inputdir}/groupsDefinition/group_rigid.txt
include             /nfs/pool002/users/smliu/tetra-nucl-msm/lammps-structures/multi_nucleo-v1.0-172-4-seq-1zbb/single_nucleo/post_processing/groupsDefinition/group_rigid.txt
group nucl1 id 44 45 46 47 48 49 50 51 52 53 54 55 56 57 58 59 60 61 62 63 64 65 66 67 68 69 70 71 72 73 74 75 76 77 78 79 80 81 82 83 84 85 86 87 88 89 90 91 92 93 94 95 96 97 98 99 100 101 102 103 104 105 106 107 108 109 110 111 112 113 114 115 116 117 118 119 120 121 122 123 124 125 126 127 128 129 130 131 132 133 134 135 160 161 162 163 164 165 166 167 168 169 170 171 172 173 174 175 176 177 178 179 180 181 182 183 184 185 186 187 188 189 190 191 192 193 194 195 196 197 198 199 200 201 202 203 204 205 206 207 208 209 210 211 212 213 214 215 216 217 218 219 220 221 222 223 224 225 226 227 228 229 230 231 232 233 234 235 236 237 258 259 260 261 262 263 264 265 266 267 268 269 270 271 272 273 274 275 276 277 278 279 280 281 282 283 284 285 286 287 288 289 290 291 292 293 294 295 296 297 298 299 300 301 302 303 304 305 306 307 308 309 310 311 312 313 314 315 316 317 318 319 320 321 322 323 324 325 326 327 328 329 330 331 332 333 334 335 336 337 338 339 340 341 342 343 344 345 346 347 348 349 350 351 352 401 402 403 404 405 406 407 408 409 410 411 412 413 414 415 416 417 418 419 420 421 422 423 424 425 426 427 428 429 430 431 432 433 434 435 436 437 438 439 440 441 442 443 444 445 446 447 448 449 450 451 452 453 454 455 456 457 458 459 460 461 462 463 464 465 466 467 468 469 470 471 472 473 474 475 476 477 478 479 480 481 482 483 484 485 486 487 531 532 533 534 535 536 537 538 539 540 541 542 543 544 545 546 547 548 549 550 551 552 553 554 555 556 557 558 559 560 561 562 563 564 565 566 567 568 569 570 571 572 573 574 575 576 577 578 579 580 581 582 583 584 585 586 587 588 589 590 591 592 593 594 595 596 597 598 599 600 601 602 603 604 605 606 607 608 609 610 611 612 613 614 615 616 617 618 619 620 621 622 647 648 649 650 651 652 653 654 655 656 657 658 659 660 661 662 663 664 665 666 667 668 669 670 671 672 673 674 675 676 677 678 679 680 681 682 683 684 685 686 687 688 689 690 691 692 693 694 695 696 697 698 699 700 701 702 703 704 705 706 707 708 709 710 711 712 713 714 715 716 717 718 719 720 721 722 723 724 745 746 747 748 749 750 751 752 753 754 755 756 757 758 759 760 761 762 763 764 765 766 767 768 769 770 771 772 773 774 775 776 777 778 779 780 781 782 783 784 785 786 787 788 789 790 791 792 793 794 795 796 797 798 799 800 801 802 803 804 805 806 807 808 809 810 811 812 813 814 815 816 817 818 819 820 821 822 823 824 825 826 827 828 829 830 831 832 833 834 835 836 837 838 839 888 889 890 891 892 893 894 895 896 897 898 899 900 901 902 903 904 905 906 907 908 909 910 911 912 913 914 915 916 917 918 919 920 921 922 923 924 925 926 927 928 929 930 931 932 933 934 935 936 937 938 939 940 941 942 943 944 945 946 947 948 949 950 951 952 953 954 955 956 957 958 959 960 961 962 963 964 965 966 967 968 969 970 971 972 973 974 4007 4008 4009 4010 4011 4012 4013 4014 4015 4016 4017 4018 4019 4020 4021 4022 4023 4024 4025 4026 4027 4028 4029 4030 4031 4032 4033 4034 4035 4036 4037 4038 4039 4040 4041 4042 4043 4044 4045 4046 4047 4048 4049 4050 4051 4052 4053 4054 4055 4056 4057 4058 4059 4060 4061 4062 4063 4064 4065 4066 4067 4068 4069 4070 4071 4072 4073 4074 4075 4076 4077 4078 4079 4080 4081 4082 4083 4084 4085 4086 4087 4088 4089 4090 4091 4092 4093 4094 4095 4096 4097 4098 4099 4100 4101 4102 4103 4104 4105 4106 4107 4108 4109 4110 4111 4112 4113 4114 4115 4116 4117 4118 4119 4120 4121 4122 4123 4124 4125 4126 4127 4128 4129 4130 4131 4132 4133 4134 4135 4136 4137 4138 4139 4140 4141 4142 4143 4144 4145 4146 4147 4148 4149 4150 4151 4152 4153 4154 4155 4156 4157 4158 4159 4160 4161 4162 4163 4164 4165 4166 4167 4168 4169 4170 4171 4172 4173 4174 4175 4176 4177 4178 4179 4180 4181 4182 4183 4184 4185 4186 4187 4188 4189 4190 4191 4192 4193 4194 4195 4196 4197 4198 4199 4200 4201 4202 4203 4204 4205 4206 4207 4208 4209 4210 4211 4212 4213 4214 4215 4216 4217 4218 4219 4220 4221 4222 4223 4224 4225 7543 7544 7545 7546 7547 7548 7549 7550 7551 7552 7553 7554 7555 7556 7557 7558 7559 7560 7561 7562 7563 7564 7565 7566 7567 7568 7569 7570 7571 7572 7573 7574 7575 7576 7577 7578 7579 7580 7581 7582 7583 7584 7585 7586 7587 7588 7589 7590 7591 7592 7593 7594 7595 7596 7597 7598 7599 7600 7601 7602 7603 7604 7605 7606 7607 7608 7609 7610 7611 7612 7613 7614 7615 7616 7617 7618 7619 7620 7621 7622 7623 7624 7625 7626 7627 7628 7629 7630 7631 7632 7633 7634 7635 7636 7637 7638 7639 7640 7641 7642 7643 7644 7645 7646 7647 7648 7649 7650 7651 7652 7653 7654 7655 7656 7657 7658 7659 7660 7661 7662 7663 7664 7665 7666 7667 7668 7669 7670 7671 7672 7673 7674 7675 7676 7677 7678 7679 7680 7681 7682 7683 7684 7685 7686 7687 7688 7689 7690 7691 7692 7693 7694 7695 7696 7697 7698 7699 7700 7701 7702 7703 7704 7705 7706 7707 7708 7709 7710 7711 7712 7713 7714 7715 7716 7717 7718 7719 7720 7721 7722 7723 7724 7725 7726 7727 7728 7729 7730 7731 7732 7733 7734 7735 7736 7737 7738 7739 7740 7741 7742 7743 7744 7745 7746 7747 7748 7749 7750 7751 7752 7753 7754 7755 7756 7757 7758 7759 7760 7761
1142 atoms in group nucl1
group nucl2 id 1018 1019 1020 1021 1022 1023 1024 1025 1026 1027 1028 1029 1030 1031 1032 1033 1034 1035 1036 1037 1038 1039 1040 1041 1042 1043 1044 1045 1046 1047 1048 1049 1050 1051 1052 1053 1054 1055 1056 1057 1058 1059 1060 1061 1062 1063 1064 1065 1066 1067 1068 1069 1070 1071 1072 1073 1074 1075 1076 1077 1078 1079 1080 1081 1082 1083 1084 1085 1086 1087 1088 1089 1090 1091 1092 1093 1094 1095 1096 1097 1098 1099 1100 1101 1102 1103 1104 1105 1106 1107 1108 1109 1134 1135 1136 1137 1138 1139 1140 1141 1142 1143 1144 1145 1146 1147 1148 1149 1150 1151 1152 1153 1154 1155 1156 1157 1158 1159 1160 1161 1162 1163 1164 1165 1166 1167 1168 1169 1170 1171 1172 1173 1174 1175 1176 1177 1178 1179 1180 1181 1182 1183 1184 1185 1186 1187 1188 1189 1190 1191 1192 1193 1194 1195 1196 1197 1198 1199 1200 1201 1202 1203 1204 1205 1206 1207 1208 1209 1210 1211 1232 1233 1234 1235 1236 1237 1238 1239 1240 1241 1242 1243 1244 1245 1246 1247 1248 1249 1250 1251 1252 1253 1254 1255 1256 1257 1258 1259 1260 1261 1262 1263 1264 1265 1266 1267 1268 1269 1270 1271 1272 1273 1274 1275 1276 1277 1278 1279 1280 1281 1282 1283 1284 1285 1286 1287 1288 1289 1290 1291 1292 1293 1294 1295 1296 1297 1298 1299 1300 1301 1302 1303 1304 1305 1306 1307 1308 1309 1310 1311 1312 1313 1314 1315 1316 1317 1318 1319 1320 1321 1322 1323 1324 1325 1326 1375 1376 1377 1378 1379 1380 1381 1382 1383 1384 1385 1386 1387 1388 1389 1390 1391 1392 1393 1394 1395 1396 1397 1398 1399 1400 1401 1402 1403 1404 1405 1406 1407 1408 1409 1410 1411 1412 1413 1414 1415 1416 1417 1418 1419 1420 1421 1422 1423 1424 1425 1426 1427 1428 1429 1430 1431 1432 1433 1434 1435 1436 1437 1438 1439 1440 1441 1442 1443 1444 1445 1446 1447 1448 1449 1450 1451 1452 1453 1454 1455 1456 1457 1458 1459 1460 1461 1505 1506 1507 1508 1509 1510 1511 1512 1513 1514 1515 1516 1517 1518 1519 1520 1521 1522 1523 1524 1525 1526 1527 1528 1529 1530 1531 1532 1533 1534 1535 1536 1537 1538 1539 1540 1541 1542 1543 1544 1545 1546 1547 1548 1549 1550 1551 1552 1553 1554 1555 1556 1557 1558 1559 1560 1561 1562 1563 1564 1565 1566 1567 1568 1569 1570 1571 1572 1573 1574 1575 1576 1577 1578 1579 1580 1581 1582 1583 1584 1585 1586 1587 1588 1589 1590 1591 1592 1593 1594 1595 1596 1621 1622 1623 1624 1625 1626 1627 1628 1629 1630 1631 1632 1633 1634 1635 1636 1637 1638 1639 1640 1641 1642 1643 1644 1645 1646 1647 1648 1649 1650 1651 1652 1653 1654 1655 1656 1657 1658 1659 1660 1661 1662 1663 1664 1665 1666 1667 1668 1669 1670 1671 1672 1673 1674 1675 1676 1677 1678 1679 1680 1681 1682 1683 1684 1685 1686 1687 1688 1689 1690 1691 1692 1693 1694 1695 1696 1697 1698 1719 1720 1721 1722 1723 1724 1725 1726 1727 1728 1729 1730 1731 1732 1733 1734 1735 1736 1737 1738 1739 1740 1741 1742 1743 1744 1745 1746 1747 1748 1749 1750 1751 1752 1753 1754 1755 1756 1757 1758 1759 1760 1761 1762 1763 1764 1765 1766 1767 1768 1769 1770 1771 1772 1773 1774 1775 1776 1777 1778 1779 1780 1781 1782 1783 1784 1785 1786 1787 1788 1789 1790 1791 1792 1793 1794 1795 1796 1797 1798 1799 1800 1801 1802 1803 1804 1805 1806 1807 1808 1809 1810 1811 1812 1813 1862 1863 1864 1865 1866 1867 1868 1869 1870 1871 1872 1873 1874 1875 1876 1877 1878 1879 1880 1881 1882 1883 1884 1885 1886 1887 1888 1889 1890 1891 1892 1893 1894 1895 1896 1897 1898 1899 1900 1901 1902 1903 1904 1905 1906 1907 1908 1909 1910 1911 1912 1913 1914 1915 1916 1917 1918 1919 1920 1921 1922 1923 1924 1925 1926 1927 1928 1929 1930 1931 1932 1933 1934 1935 1936 1937 1938 1939 1940 1941 1942 1943 1944 1945 1946 1947 1948 4523 4524 4525 4526 4527 4528 4529 4530 4531 4532 4533 4534 4535 4536 4537 4538 4539 4540 4541 4542 4543 4544 4545 4546 4547 4548 4549 4550 4551 4552 4553 4554 4555 4556 4557 4558 4559 4560 4561 4562 4563 4564 4565 4566 4567 4568 4569 4570 4571 4572 4573 4574 4575 4576 4577 4578 4579 4580 4581 4582 4583 4584 4585 4586 4587 4588 4589 4590 4591 4592 4593 4594 4595 4596 4597 4598 4599 4600 4601 4602 4603 4604 4605 4606 4607 4608 4609 4610 4611 4612 4613 4614 4615 4616 4617 4618 4619 4620 4621 4622 4623 4624 4625 4626 4627 4628 4629 4630 4631 4632 4633 4634 4635 4636 4637 4638 4639 4640 4641 4642 4643 4644 4645 4646 4647 4648 4649 4650 4651 4652 4653 4654 4655 4656 4657 4658 4659 4660 4661 4662 4663 4664 4665 4666 4667 4668 4669 4670 4671 4672 4673 4674 4675 4676 4677 4678 4679 4680 4681 4682 4683 4684 4685 4686 4687 4688 4689 4690 4691 4692 4693 4694 4695 4696 4697 4698 4699 4700 4701 4702 4703 4704 4705 4706 4707 4708 4709 4710 4711 4712 4713 4714 4715 4716 4717 4718 4719 4720 4721 4722 4723 4724 4725 4726 4727 4728 4729 4730 4731 4732 4733 4734 4735 4736 4737 4738 4739 4740 4741 7027 7028 7029 7030 7031 7032 7033 7034 7035 7036 7037 7038 7039 7040 7041 7042 7043 7044 7045 7046 7047 7048 7049 7050 7051 7052 7053 7054 7055 7056 7057 7058 7059 7060 7061 7062 7063 7064 7065 7066 7067 7068 7069 7070 7071 7072 7073 7074 7075 7076 7077 7078 7079 7080 7081 7082 7083 7084 7085 7086 7087 7088 7089 7090 7091 7092 7093 7094 7095 7096 7097 7098 7099 7100 7101 7102 7103 7104 7105 7106 7107 7108 7109 7110 7111 7112 7113 7114 7115 7116 7117 7118 7119 7120 7121 7122 7123 7124 7125 7126 7127 7128 7129 7130 7131 7132 7133 7134 7135 7136 7137 7138 7139 7140 7141 7142 7143 7144 7145 7146 7147 7148 7149 7150 7151 7152 7153 7154 7155 7156 7157 7158 7159 7160 7161 7162 7163 7164 7165 7166 7167 7168 7169 7170 7171 7172 7173 7174 7175 7176 7177 7178 7179 7180 7181 7182 7183 7184 7185 7186 7187 7188 7189 7190 7191 7192 7193 7194 7195 7196 7197 7198 7199 7200 7201 7202 7203 7204 7205 7206 7207 7208 7209 7210 7211 7212 7213 7214 7215 7216 7217 7218 7219 7220 7221 7222 7223 7224 7225 7226 7227 7228 7229 7230 7231 7232 7233 7234 7235 7236 7237 7238 7239 7240 7241 7242 7243 7244 7245
1142 atoms in group nucl2
[...]
TotEng   =     -7138.3235 KinEng   =      2997.1881 Temp     =       303.6830 
PotEng   =    -10135.5116 E_bond   =       618.5372 E_angle  =      -993.8514 
E_dihed  =     -2260.8820 E_impro  =         0.0000 E_vdwl   =     -7160.2975 
E_coul   =      -339.0179 E_long   =         0.0000 Press    =         0.0051 
---------------- Step    40000 ----- CPU =   1235.3555 (sec) ----------------
TotEng   =     -7263.7814 KinEng   =      2930.9552 Temp     =       296.9721 
PotEng   =    -10194.7365 E_bond   =       633.0537 E_angle  =     -1009.6136 
E_dihed  =     -2281.0719 E_impro  =         0.0000 E_vdwl   =     -7172.9833 
E_coul   =      -364.1213 E_long   =         0.0000 Press    =         0.0012 
---------------- Step    50000 ----- CPU =   1545.8717 (sec) ----------------
TotEng   =     -7252.4797 KinEng   =      2920.2945 Temp     =       295.8920 
PotEng   =    -10172.7741 E_bond   =       621.3905 E_angle  =      -984.6418 
E_dihed  =     -2270.2135 E_impro  =         0.0000 E_vdwl   =     -7170.0318 
E_coul   =      -369.2775 E_long   =         0.0000 Press    =        -0.0168 
---------------- Step    60000 ----- CPU =   1870.1159 (sec) ----------------
TotEng   =     -7082.9589 KinEng   =      2996.0612 Temp     =       303.5688 
PotEng   =    -10079.0201 E_bond   =       663.4712 E_angle  =      -952.9898 
E_dihed  =     -2248.7005 E_impro  =         0.0000 E_vdwl   =     -7167.2208 
E_coul   =      -373.5802 E_long   =         0.0000 Press    =        -0.0012 
---------------- Step    70000 ----- CPU =   2184.8326 (sec) ----------------
TotEng   =     -7121.6896 KinEng   =      3032.0725 Temp     =       307.2176 
PotEng   =    -10153.7622 E_bond   =       641.4611 E_angle  =      -991.5820 
E_dihed  =     -2271.3427 E_impro  =         0.0000 E_vdwl   =     -7181.2198 
E_coul   =      -351.0788 E_long   =         0.0000 Press    =        -0.0054 
---------------- Step    80000 ----- CPU =   2491.7437 (sec) ----------------
TotEng   =     -7279.0395 KinEng   =      2916.1903 Temp     =       295.4761 
PotEng   =    -10195.2298 E_bond   =       648.9636 E_angle  =     -1017.8804 
E_dihed  =     -2255.1465 E_impro  =         0.0000 E_vdwl   =     -7195.7759 
E_coul   =      -375.3907 E_long   =         0.0000 Press    =        -0.0036 
---------------- Step    90000 ----- CPU =   2797.0464 (sec) ----------------
TotEng   =     -7157.9246 KinEng   =      3016.6602 Temp     =       305.6560 
PotEng   =    -10174.5848 E_bond   =       628.4321 E_angle  =      -961.0096 
E_dihed  =     -2260.8707 E_impro  =         0.0000 E_vdwl   =     -7216.8213 
E_coul   =      -364.3152 E_long   =         0.0000 Press    =        -0.0038 
---------------- Step   100000 ----- CPU =   3122.9322 (sec) ----------------
TotEng   =     -7222.6083 KinEng   =      2965.7760 Temp     =       300.5003 
PotEng   =    -10188.3844 E_bond   =       637.7632 E_angle  =     -1008.7990 
E_dihed  =     -2255.7129 E_impro  =         0.0000 E_vdwl   =     -7200.5641 
E_coul   =      -361.0715 E_long   =         0.0000 Press    =        -0.0012 
---------------- Step   110000 ----- CPU =   3477.9740 (sec) ----------------
TotEng   =     -7271.0466 KinEng   =      2865.9372 Temp     =       290.3843 
PotEng   =    -10136.9837 E_bond   =       641.9550 E_angle  =     -1003.8426 
E_dihed  =     -2254.0108 E_impro  =         0.0000 E_vdwl   =     -7170.1751 
E_coul   =      -350.9103 E_long   =         0.0000 Press    =         0.0057 
---------------- Step   120000 ----- CPU =   3817.1373 (sec) ----------------
TotEng   =     -7075.5060 KinEng   =      3040.1747 Temp     =       308.0385 
PotEng   =    -10115.6807 E_bond   =       664.4791 E_angle  =      -962.1926 
E_dihed  =     -2275.7249 E_impro  =         0.0000 E_vdwl   =     -7181.8224 
E_coul   =      -360.4199 E_long   =         0.0000 Press    =         0.0034 
---------------- Step   130000 ----- CPU =   4139.5959 (sec) ----------------
TotEng   =     -7082.1902 KinEng   =      2987.8266 Temp     =       302.7345 
PotEng   =    -10070.0168 E_bond   =       671.7414 E_angle  =      -969.3593 
E_dihed  =     -2256.7613 E_impro  =         0.0000 E_vdwl   =     -7162.4355 
E_coul   =      -353.2021 E_long   =         0.0000 Press    =         0.0052 
---------------- Step   140000 ----- CPU =   4466.4325 (sec) ----------------
TotEng   =     -7276.9538 KinEng   =      2911.8287 Temp     =       295.0342 
PotEng   =    -10188.7825 E_bond   =       629.0032 E_angle  =     -1035.2458 
E_dihed  =     -2257.9698 E_impro  =         0.0000 E_vdwl   =     -7160.5988 
E_coul   =      -363.9713 E_long   =         0.0000 Press    =        -0.0015 
---------------- Step   150000 ----- CPU =   4783.0716 (sec) ----------------
TotEng   =     -7160.1165 KinEng   =      3019.8428 Temp     =       305.9785 
PotEng   =    -10179.9593 E_bond   =       644.9291 E_angle  =      -988.5845 
E_dihed  =     -2267.5683 E_impro  =         0.0000 E_vdwl   =     -7197.8109 
E_coul   =      -370.9247 E_long   =         0.0000 Press    =        -0.0047 
---------------- Step   160000 ----- CPU =   5106.4353 (sec) ----------------
TotEng   =     -7161.9580 KinEng   =      3000.4086 Temp     =       304.0093 
PotEng   =    -10162.3666 E_bond   =       660.3498 E_angle  =     -1025.4318 
E_dihed  =     -2274.7448 E_impro  =         0.0000 E_vdwl   =     -7185.2633 
E_coul   =      -337.2764 E_long   =         0.0000 Press    =        -0.0005 
---------------- Step   170000 ----- CPU =   5424.1665 (sec) ----------------
TotEng   =     -7237.9129 KinEng   =      2938.6767 Temp     =       297.7545 
PotEng   =    -10176.5896 E_bond   =       612.7363 E_angle  =      -987.0901 
E_dihed  =     -2267.6854 E_impro  =         0.0000 E_vdwl   =     -7169.9198 
E_coul   =      -364.6306 E_long   =         0.0000 Press    =         0.0061 
---------------- Step   180000 ----- CPU =   5737.4425 (sec) ----------------
TotEng   =     -7316.4489 KinEng   =      2874.1137 Temp     =       291.2128 
PotEng   =    -10190.5626 E_bond   =       621.9150 E_angle  =     -1018.3378 
E_dihed  =     -2262.6507 E_impro  =         0.0000 E_vdwl   =     -7180.9573 
E_coul   =      -350.5318 E_long   =         0.0000 Press    =         0.0153 
---------------- Step   190000 ----- CPU =   6043.5819 (sec) ----------------
TotEng   =     -7179.8075 KinEng   =      3018.7631 Temp     =       305.8691 
PotEng   =    -10198.5706 E_bond   =       603.7577 E_angle  =      -988.5490 
E_dihed  =     -2265.2312 E_impro  =         0.0000 E_vdwl   =     -7176.3371 
E_coul   =      -372.2110 E_long   =         0.0000 Press    =         0.0061 
---------------- Step   200000 ----- CPU =   6358.6279 (sec) ----------------
TotEng   =     -7218.8560 KinEng   =      2904.7440 Temp     =       294.3163 
PotEng   =    -10123.6000 E_bond   =       614.1833 E_angle  =      -958.3823 
E_dihed  =     -2273.3103 E_impro  =         0.0000 E_vdwl   =     -7139.8570 
E_coul   =      -366.2337 E_long   =         0.0000 Press    =         0.0118 
---------------- Step   210000 ----- CPU =   6660.8088 (sec) ----------------
TotEng   =     -7172.5448 KinEng   =      2965.9349 Temp     =       300.5164 
PotEng   =    -10138.4798 E_bond   =       653.8126 E_angle  =      -990.0090 
E_dihed  =     -2277.0818 E_impro  =         0.0000 E_vdwl   =     -7175.0815 
E_coul   =      -350.1200 E_long   =         0.0000 Press    =        -0.0053 
---------------- Step   220000 ----- CPU =   6967.9698 (sec) ----------------
TotEng   =     -7190.0731 KinEng   =      2953.4495 Temp     =       299.2513 
PotEng   =    -10143.5226 E_bond   =       644.6746 E_angle  =      -999.1418 
E_dihed  =     -2262.7877 E_impro  =         0.0000 E_vdwl   =     -7188.2557 
E_coul   =      -338.0121 E_long   =         0.0000 Press    =         0.0022 
---------------- Step   230000 ----- CPU =   7272.7029 (sec) ----------------
TotEng   =     -7163.3944 KinEng   =      2972.5894 Temp     =       301.1906 
PotEng   =    -10135.9838 E_bond   =       597.8071 E_angle  =      -967.2137 
E_dihed  =     -2270.1622 E_impro  =         0.0000 E_vdwl   =     -7159.2168 
E_coul   =      -337.1983 E_long   =         0.0000 Press    =         0.0078 
---------------- Step   240000 ----- CPU =   7584.0841 (sec) ----------------
TotEng   =     -7158.6945 KinEng   =      2915.6183 Temp     =       295.4182 
PotEng   =    -10074.3128 E_bond   =       634.4255 E_angle  =      -919.2591 
E_dihed  =     -2270.9337 E_impro  =         0.0000 E_vdwl   =     -7167.0935 
E_coul   =      -351.4519 E_long   =         0.0000 Press    =         0.0006 
---------------- Step   250000 ----- CPU =   7906.8189 (sec) ----------------
TotEng   =     -7131.9476 KinEng   =      2979.8789 Temp     =       301.9292 
PotEng   =    -10111.8265 E_bond   =       636.1732 E_angle  =      -964.9271 
E_dihed  =     -2259.3785 E_impro  =         0.0000 E_vdwl   =     -7166.8494 
E_coul   =      -356.8447 E_long   =         0.0000 Press    =         0.0058 
---------------- Step   260000 ----- CPU =   8237.2014 (sec) ----------------
TotEng   =     -7185.1177 KinEng   =      2982.9105 Temp     =       302.2364 
PotEng   =    -10168.0282 E_bond   =       641.1269 E_angle  =      -978.1605 
E_dihed  =     -2261.5813 E_impro  =         0.0000 E_vdwl   =     -7193.0364 
E_coul   =      -376.3768 E_long   =         0.0000 Press    =         0.0004 
---------------- Step   270000 ----- CPU =   8588.1966 (sec) ----------------
TotEng   =     -7226.6969 KinEng   =      2943.3774 Temp     =       298.2308 
PotEng   =    -10170.0743 E_bond   =       611.1787 E_angle  =      -998.0644 
E_dihed  =     -2250.1837 E_impro  =         0.0000 E_vdwl   =     -7167.8677 
E_coul   =      -365.1373 E_long   =         0.0000 Press    =         0.0181 
---------------- Step   280000 ----- CPU =   8941.6011 (sec) ----------------
TotEng   =     -7142.0246 KinEng   =      2989.1741 Temp     =       302.8710 
PotEng   =    -10131.1988 E_bond   =       631.3856 E_angle  =      -962.2060 
E_dihed  =     -2251.4868 E_impro  =         0.0000 E_vdwl   =     -7170.4353 
E_coul   =      -378.4563 E_long   =         0.0000 Press    =         0.0130 
---------------- Step   290000 ----- CPU =   9288.5463 (sec) ----------------
TotEng   =     -7243.4781 KinEng   =      2967.1421 Temp     =       300.6387 
PotEng   =    -10210.6202 E_bond   =       627.4585 E_angle  =     -1000.2823 
E_dihed  =     -2272.5122 E_impro  =         0.0000 E_vdwl   =     -7180.9973 
E_coul   =      -384.2868 E_long   =         0.0000 Press    =         0.0084 
---------------- Step   300000 ----- CPU =   9612.8813 (sec) ----------------
TotEng   =     -7193.1540 KinEng   =      2950.5336 Temp     =       298.9559 
PotEng   =    -10143.6876 E_bond   =       639.3325 E_angle  =      -966.3836 
E_dihed  =     -2242.4435 E_impro  =         0.0000 E_vdwl   =     -7203.9379 
E_coul   =      -370.2551 E_long   =         0.0000 Press    =         0.0003 
---------------- Step   310000 ----- CPU =   9931.4474 (sec) ----------------
TotEng   =     -7184.9517 KinEng   =      2999.8948 Temp     =       303.9573 
PotEng   =    -10184.8465 E_bond   =       624.1530 E_angle  =      -982.8329 
E_dihed  =     -2257.5422 E_impro  =         0.0000 E_vdwl   =     -7202.2855 
E_coul   =      -366.3389 E_long   =         0.0000 Press    =        -0.0000 
---------------- Step   320000 ----- CPU =  10244.1844 (sec) ----------------
TotEng   =     -7286.5960 KinEng   =      2919.5216 Temp     =       295.8136 
PotEng   =    -10206.1176 E_bond   =       592.2067 E_angle  =      -983.3553 
E_dihed  =     -2273.8500 E_impro  =         0.0000 E_vdwl   =     -7193.2796 
E_coul   =      -347.8394 E_long   =         0.0000 Press    =         0.0007 
---------------- Step   330000 ----- CPU =  10551.8159 (sec) ----------------
TotEng   =     -7237.5553 KinEng   =      2920.1749 Temp     =       295.8798 
PotEng   =    -10157.7302 E_bond   =       630.2027 E_angle  =      -983.4390 
E_dihed  =     -2261.4126 E_impro  =         0.0000 E_vdwl   =     -7177.4352 
E_coul   =      -365.6461 E_long   =         0.0000 Press    =         0.0046 
---------------- Step   340000 ----- CPU =  10864.8631 (sec) ----------------
TotEng   =     -7182.4909 KinEng   =      3021.1138 Temp     =       306.1072 
PotEng   =    -10203.6047 E_bond   =       633.8657 E_angle  =     -1014.4762 
E_dihed  =     -2269.4406 E_impro  =         0.0000 E_vdwl   =     -7190.7742 
E_coul   =      -362.7794 E_long   =         0.0000 Press    =         0.0142 
---------------- Step   350000 ----- CPU =  11195.6992 (sec) ----------------
TotEng   =     -7082.3134 KinEng   =      2976.8203 Temp     =       301.6193 
PotEng   =    -10059.1338 E_bond   =       668.7950 E_angle  =      -944.9575 
E_dihed  =     -2258.4010 E_impro  =         0.0000 E_vdwl   =     -7178.1085 
E_coul   =      -346.4618 E_long   =         0.0000 Press    =         0.0112 
---------------- Step   360000 ----- CPU =  11548.8631 (sec) ----------------
TotEng   =     -7381.9442 KinEng   =      2893.5450 Temp     =       293.1816 
PotEng   =    -10275.4892 E_bond   =       604.4670 E_angle  =     -1019.8539 
E_dihed  =     -2283.3892 E_impro  =         0.0000 E_vdwl   =     -7197.4573 
E_coul   =      -379.2557 E_long   =         0.0000 Press    =        -0.0006 
---------------- Step   370000 ----- CPU =  11938.1187 (sec) ----------------
TotEng   =     -7330.2406 KinEng   =      2930.2635 Temp     =       296.9020 
PotEng   =    -10260.5041 E_bond   =       585.5644 E_angle  =     -1013.0927 
E_dihed  =     -2261.0041 E_impro  =         0.0000 E_vdwl   =     -7180.7879 
E_coul   =      -391.1838 E_long   =         0.0000 Press    =        -0.0078 
---------------- Step   380000 ----- CPU =  12352.1167 (sec) ----------------
TotEng   =     -7154.8439 KinEng   =      2971.9481 Temp     =       301.1256 
PotEng   =    -10126.7919 E_bond   =       634.3969 E_angle  =      -975.7976 
E_dihed  =     -2267.1499 E_impro  =         0.0000 E_vdwl   =     -7162.2295 
E_coul   =      -356.0119 E_long   =         0.0000 Press    =         0.0182 
---------------- Step   390000 ----- CPU =  12775.2597 (sec) ----------------
TotEng   =     -7261.6710 KinEng   =      2958.6460 Temp     =       299.7778 
PotEng   =    -10220.3170 E_bond   =       649.9820 E_angle  =     -1036.3733 
E_dihed  =     -2265.8497 E_impro  =         0.0000 E_vdwl   =     -7210.0738 
E_coul   =      -358.0022 E_long   =         0.0000 Press    =        -0.0026 
---------------- Step   400000 ----- CPU =  13192.6795 (sec) ----------------
TotEng   =     -7177.3713 KinEng   =      2935.3573 Temp     =       297.4182 
PotEng   =    -10112.7286 E_bond   =       642.3472 E_angle  =      -943.1476 
E_dihed  =     -2262.0204 E_impro  =         0.0000 E_vdwl   =     -7175.3453 
E_coul   =      -374.5626 E_long   =         0.0000 Press    =        -0.0010 
---------------- Step   410000 ----- CPU =  13612.2207 (sec) ----------------
TotEng   =     -7134.4913 KinEng   =      3018.3004 Temp     =       305.8222 
PotEng   =    -10152.7917 E_bond   =       603.1734 E_angle  =      -961.4852 
E_dihed  =     -2267.6324 E_impro  =         0.0000 E_vdwl   =     -7177.6676 
E_coul   =      -349.1799 E_long   =         0.0000 Press    =         0.0088 
---------------- Step   420000 ----- CPU =  14036.0695 (sec) ----------------
TotEng   =     -7208.1909 KinEng   =      2940.7736 Temp     =       297.9670 
PotEng   =    -10148.9645 E_bond   =       640.9298 E_angle  =      -990.0160 
E_dihed  =     -2264.2541 E_impro  =         0.0000 E_vdwl   =     -7188.1117 
E_coul   =      -347.5124 E_long   =         0.0000 Press    =         0.0099 
---------------- Step   430000 ----- CPU =  14458.1779 (sec) ----------------
TotEng   =     -7061.5525 KinEng   =      3066.0989 Temp     =       310.6652 
PotEng   =    -10127.6514 E_bond   =       653.8762 E_angle  =     -1000.9887 
E_dihed  =     -2254.9003 E_impro  =         0.0000 E_vdwl   =     -7175.2950 
E_coul   =      -350.3436 E_long   =         0.0000 Press    =        -0.0085 
---------------- Step   440000 ----- CPU =  14893.7019 (sec) ----------------
TotEng   =     -7273.6517 KinEng   =      2913.9147 Temp     =       295.2455 
PotEng   =    -10187.5664 E_bond   =       657.9556 E_angle  =     -1035.0212 
E_dihed  =     -2281.6873 E_impro  =         0.0000 E_vdwl   =     -7162.6567 
E_coul   =      -366.1568 E_long   =         0.0000 Press    =        -0.0106 
---------------- Step   450000 ----- CPU =  15324.8626 (sec) ----------------
TotEng   =     -7151.1008 KinEng   =      3039.9965 Temp     =       308.0205 
PotEng   =    -10191.0973 E_bond   =       668.6546 E_angle  =     -1043.3853 
E_dihed  =     -2273.1829 E_impro  =         0.0000 E_vdwl   =     -7168.5630 
E_coul   =      -374.6206 E_long   =         0.0000 Press    =         0.0209 
---------------- Step   460000 ----- CPU =  15741.8865 (sec) ----------------
TotEng   =     -7269.3305 KinEng   =      2931.4787 Temp     =       297.0252 
PotEng   =    -10200.8092 E_bond   =       631.8006 E_angle  =     -1017.2351 
E_dihed  =     -2259.7532 E_impro  =         0.0000 E_vdwl   =     -7180.8450 
E_coul   =      -374.7766 E_long   =         0.0000 Press    =         0.0126 
---------------- Step   470000 ----- CPU =  16132.4985 (sec) ----------------
TotEng   =     -7299.8994 KinEng   =      2881.1853 Temp     =       291.9293 
PotEng   =    -10181.0846 E_bond   =       625.0816 E_angle  =     -1014.2994 
E_dihed  =     -2268.4684 E_impro  =         0.0000 E_vdwl   =     -7164.8744 
E_coul   =      -358.5240 E_long   =         0.0000 Press    =         0.0069 
---------------- Step   480000 ----- CPU =  16510.0076 (sec) ----------------
TotEng   =     -7181.3559 KinEng   =      2939.1473 Temp     =       297.8022 
PotEng   =    -10120.5032 E_bond   =       636.7330 E_angle  =      -973.2306 
E_dihed  =     -2237.4588 E_impro  =         0.0000 E_vdwl   =     -7186.3412 
E_coul   =      -360.2056 E_long   =         0.0000 Press    =        -0.0108 
---------------- Step   490000 ----- CPU =  16877.3755 (sec) ----------------
TotEng   =     -7151.4663 KinEng   =      2957.2064 Temp     =       299.6320 
PotEng   =    -10108.6727 E_bond   =       635.8073 E_angle  =      -970.3257 
E_dihed  =     -2265.0090 E_impro  =         0.0000 E_vdwl   =     -7152.0151 
E_coul   =      -357.1303 E_long   =         0.0000 Press    =         0.0049 
---------------- Step   500000 ----- CPU =  17241.2450 (sec) ----------------
TotEng   =     -7146.4687 KinEng   =      3011.9349 Temp     =       305.1772 
PotEng   =    -10158.4036 E_bond   =       648.2827 E_angle  =     -1023.9015 
E_dihed  =     -2261.0623 E_impro  =         0.0000 E_vdwl   =     -7160.8164 
E_coul   =      -360.9062 E_long   =         0.0000 Press    =        -0.0045 
Loop time of 17241.2 on 2 procs for 500000 steps with 7872 atoms

Performance: 25.056 ns/day, 0.958 hours/ns, 29.000 timesteps/s
99.9% CPU use with 2 MPI tasks x no OpenMP threads

MPI task timing breakdown:
Section |  min time  |  avg time  |  max time  |%varavg| %total
---------------------------------------------------------------
Pair    | 12517      | 13185      | 13853      | 582.0 | 76.47
Bond    | 367.68     | 398.94     | 430.21     | 156.5 |  2.31
Neigh   | 1165.7     | 1165.9     | 1166.1     |   0.6 |  6.76
Comm    | 1610.7     | 2306.6     | 3002.5     |1448.9 | 13.38
Output  | 0.23226    | 0.29487    | 0.35748    |  11.5 |  0.00
Modify  | 160.92     | 161.77     | 162.63     |   6.7 |  0.94
Other   |            | 22.96      |            |       |  0.13

Nlocal:    3936 ave 4705 max 3167 min
Histogram: 1 0 0 0 0 0 0 0 0 1
Nghost:    2575.5 ave 4013 max 1138 min
Histogram: 1 0 0 0 0 0 0 0 0 1
Neighs:    725826 ave 896420 max 555233 min
Histogram: 1 0 0 0 0 0 0 0 0 1

Total # of neighbors = 1451653
Ave neighs/atom = 184.407
Ave special neighs/atom = 6.61992
Neighbor list builds = 11910
Dangerous builds = 0

Total wall time: 4:47:25
