LAMMPS (5 Nov 2016)
Processor partition = 0
Reading data file ...
  orthogonal box = (-1000 -1000 -1000) to (1000 1000 1000)
  1 by 1 by 2 MPI processor grid
  reading atoms ...
  7872 atoms
  scanning bonds ...
  2 = max bonds/atom
  scanning angles ...
  3 = max angles/atom
  scanning dihedrals ...
  2 = max dihedrals/atom
  reading bonds ...
  7838 bonds
  reading angles ...
  10450 angles
  reading dihedrals ...
  8012 dihedrals
Finding 1-2 1-3 1-4 neighbors ...
 Special bond factors lj:   0          0          0         
 Special bond factors coul: 0          0          0         
  3 = max # of 1-2 neighbors
  4 = max # of 1-3 neighbors
  6 = max # of 1-4 neighbors
  9 = max # of special neighbors
Dump reader uses molfile plugin: CHARMM,NAMD,XPLOR DCD Trajectory v1.11 by Axel Kohlmeyer, Justin Gullingsrud, John Stone
Scanning dump file ...
Reading snapshot from dump file ...
  orthogonal box = (-1000 -1000 -1000) to (1000 1000 1000)
  7872 atoms before read
  7872 atoms in snapshot
  0 atoms purged
  7872 atoms replaced
  0 atoms trimmed
  0 atoms added
  7872 atoms after read
Read 9357 (0/0/0/9357) interacting pairs from /nfs/pool002/users/smliu/tetra-nucl-msm/lammps-structures/multi_nucleo-v1.0-172-4-seq-1zbb/single_nucleo/post_processing/prot_list_files/ca_pair_list.txt
1142 atoms in group nucl1
1142 atoms in group nucl2
1142 atoms in group nucl3
1142 atoms in group nucl4
4568 atoms in group core
3304 atoms in group nonRigidBody
System init for delete_bonds ...
Neighbor list info ...
  3 neighbor list requests
  update every 1 steps, delay 10 steps, check yes
  max neighbors/atom: 5000, page size: 100000
  master list distance cutoff = 55
  ghost atom cutoff = 55
  binsize = 27.5, bins = 73 73 73
Deleting bonds ...
  6706 total bonds, 6706 turned on, 0 turned off
  9040 total angles, 9040 turned on, 0 turned off
  6758 total dihedrals, 6758 turned on, 0 turned off
  0 total impropers, 0 turned on, 0 turned off
System init for delete_bonds ...
Deleting bonds ...
  5574 total bonds, 5574 turned on, 0 turned off
  7630 total angles, 7630 turned on, 0 turned off
  5504 total dihedrals, 5504 turned on, 0 turned off
  0 total impropers, 0 turned on, 0 turned off
System init for delete_bonds ...
Deleting bonds ...
  4442 total bonds, 4442 turned on, 0 turned off
  6220 total angles, 6220 turned on, 0 turned off
  4250 total dihedrals, 4250 turned on, 0 turned off
  0 total impropers, 0 turned on, 0 turned off
System init for delete_bonds ...
Deleting bonds ...
  3310 total bonds, 3310 turned on, 0 turned off
  4810 total angles, 4810 turned on, 0 turned off
  2996 total dihedrals, 2996 turned on, 0 turned off
  0 total impropers, 0 turned on, 0 turned off
WARNING: Resetting reneighboring criteria during minimization (../min.cpp:168)
Neighbor list info ...
  3 neighbor list requests
  update every 1 steps, delay 0 steps, check yes
  max neighbors/atom: 5000, page size: 100000
  master list distance cutoff = 55
  ghost atom cutoff = 55
  binsize = 27.5, bins = 73 73 73
Setting up cg style minimization ...
  Unit style    : real
Memory usage per processor = 11.3151 Mbytes
---------------- Step        0 ----- CPU =      0.0000 (sec) ----------------
TotEng   =     -3120.2431 KinEng   =      7038.5868 Temp     =       300.0000 
PotEng   =    -10158.8299 E_bond   =       642.3201 E_angle  =      -977.6159 
E_dihed  =     -2259.1551 E_impro  =         0.0000 E_vdwl   =     -7206.3477 
E_coul   =      -358.0314 E_long   =         0.0000 Press    =         0.0220 
---------------- Step       46 ----- CPU =      2.8397 (sec) ----------------
TotEng   =     -5528.5248 KinEng   =      7038.5868 Temp     =       300.0000 
PotEng   =    -12567.1115 E_bond   =        13.2453 E_angle  =     -2243.4740 
E_dihed  =     -2441.8798 E_impro  =         0.0000 E_vdwl   =     -7519.5627 
E_coul   =      -375.4403 E_long   =         0.0000 Press    =         0.0350 
Loop time of 2.83982 on 2 procs for 46 steps with 7872 atoms

99.6% CPU use with 2 MPI tasks x no OpenMP threads

Minimization stats:
  Stopping criterion = energy tolerance
  Energy initial, next-to-last, final = 
        -10158.8298553     -12565.9189232     -12567.1115302
  Force two-norm initial, final = 598.658 16.6327
  Force max component initial, final = 43.4097 3.64717
  Final line search alpha, max atom move = 0.0334001 0.121816
  Iterations, force evaluations = 46 75

MPI task timing breakdown:
Section |  min time  |  avg time  |  max time  |%varavg| %total
---------------------------------------------------------------
Pair    | 0.81079    | 1.7763     | 2.7418     |  72.4 | 62.55
Bond    | 0.025364   | 0.043917   | 0.062469   |   8.9 |  1.55
Neigh   | 0          | 0          | 0          |   0.0 |  0.00
Comm    | 0.017012   | 1.0006     | 1.9841     |  98.3 | 35.23
Output  | 0          | 0          | 0          |   0.0 |  0.00
Modify  | 0          | 0          | 0          |   0.0 |  0.00
Other   |            | 0.01902    |            |       |  0.67

Nlocal:    3936 ave 6482 max 1390 min
Histogram: 1 0 0 0 0 0 0 0 0 1
Nghost:    2720.5 ave 4054 max 1387 min
Histogram: 1 0 0 0 0 0 0 0 0 1
Neighs:    815505 ave 1.24633e+06 max 384682 min
Histogram: 1 0 0 0 0 0 0 0 0 1

Total # of neighbors = 1631010
Ave neighs/atom = 207.191
Ave special neighs/atom = 6.61992
Neighbor list builds = 0
Dangerous builds = 0
4 rigid bodies with 4568 atoms
Balancing ...
Neighbor list info ...
  3 neighbor list requests
  update every 1 steps, delay 10 steps, check yes
  max neighbors/atom: 5000, page size: 100000
  master list distance cutoff = 55
  ghost atom cutoff = 55
  binsize = 27.5, bins = 73 73 73
  rebalancing time: 0.00584888 seconds
  iteration count = 12
  initial/final max load/proc = 6484 3943
  initial/final imbalance factor = 1.64736 1.00178
  x cuts: 0 1
  y cuts: 0 1
  z cuts: 0 0.519043 1
Setting up Verlet run ...
  Unit style    : real
  Current step  : 0
  Time step     : 10
Memory usage per processor = 12.0831 Mbytes
---------------- Step        0 ----- CPU =      0.0000 (sec) ----------------
TotEng   =     -9629.9069 KinEng   =      2937.2046 Temp     =       297.6053 
PotEng   =    -12567.1115 E_bond   =        13.2453 E_angle  =     -2243.4740 
E_dihed  =     -2441.8798 E_impro  =         0.0000 E_vdwl   =     -7519.5627 
E_coul   =      -375.4403 E_long   =         0.0000 Press    =        -0.7894 
---------------- Step    10000 ----- CPU =    304.2311 (sec) ----------------
TotEng   =     -7277.2033 KinEng   =      2946.4154 Temp     =       298.5386 
PotEng   =    -10223.6187 E_bond   =       574.6654 E_angle  =     -1023.7640 
E_dihed  =     -2252.7181 E_impro  =         0.0000 E_vdwl   =     -7194.3941 
E_coul   =      -327.4080 E_long   =         0.0000 Press    =        -0.0053 
---------------- Step    20000 ----- CPU =    610.1520 (sec) ----------------
TotEng   =     -7132.2279 KinEng   =      3038.7621 Temp     =       307.8954 
PotEng   =    -10170.9900 E_bond   =       609.2712 E_angle  =     -1014.3087 
E_dihed  =     -2274.7423 E_impro  =         0.0000 E_vdwl   =     -7142.8376 
E_coul   =      -348.3727 E_long   =         0.0000 Press    =         0.0015 
---------------- Step    30000 ----- CPU =    923.2762 (sec) ----------------
TotEng   =     -7138.3235 KinEng   =      2997.1881 Temp     =       303.6830 
PotEng   =    -10135.5116 E_bond   =       618.5372 E_angle  =      -993.8514 
E_dihed  =     -2260.8820 E_impro  =         0.0000 E_vdwl   =     -7160.2975 
E_coul   =      -339.0179 E_long   =         0.0000 Press    =         0.0051 
---------------- Step    40000 ----- CPU =   1235.3555 (sec) ----------------
TotEng   =     -7263.7814 KinEng   =      2930.9552 Temp     =       296.9721 
PotEng   =    -10194.7365 E_bond   =       633.0537 E_angle  =     -1009.6136 
E_dihed  =     -2281.0719 E_impro  =         0.0000 E_vdwl   =     -7172.9833 
E_coul   =      -364.1213 E_long   =         0.0000 Press    =         0.0012 
---------------- Step    50000 ----- CPU =   1545.8717 (sec) ----------------
TotEng   =     -7252.4797 KinEng   =      2920.2945 Temp     =       295.8920 
PotEng   =    -10172.7741 E_bond   =       621.3905 E_angle  =      -984.6418 
E_dihed  =     -2270.2135 E_impro  =         0.0000 E_vdwl   =     -7170.0318 
E_coul   =      -369.2775 E_long   =         0.0000 Press    =        -0.0168 
---------------- Step    60000 ----- CPU =   1870.1159 (sec) ----------------
TotEng   =     -7082.9589 KinEng   =      2996.0612 Temp     =       303.5688 
PotEng   =    -10079.0201 E_bond   =       663.4712 E_angle  =      -952.9898 
E_dihed  =     -2248.7005 E_impro  =         0.0000 E_vdwl   =     -7167.2208 
E_coul   =      -373.5802 E_long   =         0.0000 Press    =        -0.0012 
---------------- Step    70000 ----- CPU =   2184.8326 (sec) ----------------
TotEng   =     -7121.6896 KinEng   =      3032.0725 Temp     =       307.2176 
PotEng   =    -10153.7622 E_bond   =       641.4611 E_angle  =      -991.5820 
E_dihed  =     -2271.3427 E_impro  =         0.0000 E_vdwl   =     -7181.2198 
E_coul   =      -351.0788 E_long   =         0.0000 Press    =        -0.0054 
---------------- Step    80000 ----- CPU =   2491.7437 (sec) ----------------
TotEng   =     -7279.0395 KinEng   =      2916.1903 Temp     =       295.4761 
PotEng   =    -10195.2298 E_bond   =       648.9636 E_angle  =     -1017.8804 
E_dihed  =     -2255.1465 E_impro  =         0.0000 E_vdwl   =     -7195.7759 
E_coul   =      -375.3907 E_long   =         0.0000 Press    =        -0.0036 
---------------- Step    90000 ----- CPU =   2797.0464 (sec) ----------------
TotEng   =     -7157.9246 KinEng   =      3016.6602 Temp     =       305.6560 
PotEng   =    -10174.5848 E_bond   =       628.4321 E_angle  =      -961.0096 
E_dihed  =     -2260.8707 E_impro  =         0.0000 E_vdwl   =     -7216.8213 
E_coul   =      -364.3152 E_long   =         0.0000 Press    =        -0.0038 
---------------- Step   100000 ----- CPU =   3122.9322 (sec) ----------------
TotEng   =     -7222.6083 KinEng   =      2965.7760 Temp     =       300.5003 
PotEng   =    -10188.3844 E_bond   =       637.7632 E_angle  =     -1008.7990 
E_dihed  =     -2255.7129 E_impro  =         0.0000 E_vdwl   =     -7200.5641 
E_coul   =      -361.0715 E_long   =         0.0000 Press    =        -0.0012 
---------------- Step   110000 ----- CPU =   3477.9740 (sec) ----------------
TotEng   =     -7271.0466 KinEng   =      2865.9372 Temp     =       290.3843 
PotEng   =    -10136.9837 E_bond   =       641.9550 E_angle  =     -1003.8426 
E_dihed  =     -2254.0108 E_impro  =         0.0000 E_vdwl   =     -7170.1751 
E_coul   =      -350.9103 E_long   =         0.0000 Press    =         0.0057 
---------------- Step   120000 ----- CPU =   3817.1373 (sec) ----------------
TotEng   =     -7075.5060 KinEng   =      3040.1747 Temp     =       308.0385 
PotEng   =    -10115.6807 E_bond   =       664.4791 E_angle  =      -962.1926 
E_dihed  =     -2275.7249 E_impro  =         0.0000 E_vdwl   =     -7181.8224 
E_coul   =      -360.4199 E_long   =         0.0000 Press    =         0.0034 
---------------- Step   130000 ----- CPU =   4139.5959 (sec) ----------------
TotEng   =     -7082.1902 KinEng   =      2987.8266 Temp     =       302.7345 
PotEng   =    -10070.0168 E_bond   =       671.7414 E_angle  =      -969.3593 
E_dihed  =     -2256.7613 E_impro  =         0.0000 E_vdwl   =     -7162.4355 
E_coul   =      -353.2021 E_long   =         0.0000 Press    =         0.0052 
---------------- Step   140000 ----- CPU =   4466.4325 (sec) ----------------
TotEng   =     -7276.9538 KinEng   =      2911.8287 Temp     =       295.0342 
PotEng   =    -10188.7825 E_bond   =       629.0032 E_angle  =     -1035.2458 
E_dihed  =     -2257.9698 E_impro  =         0.0000 E_vdwl   =     -7160.5988 
E_coul   =      -363.9713 E_long   =         0.0000 Press    =        -0.0015 
---------------- Step   150000 ----- CPU =   4783.0716 (sec) ----------------
TotEng   =     -7160.1165 KinEng   =      3019.8428 Temp     =       305.9785 
PotEng   =    -10179.9593 E_bond   =       644.9291 E_angle  =      -988.5845 
E_dihed  =     -2267.5683 E_impro  =         0.0000 E_vdwl   =     -7197.8109 
E_coul   =      -370.9247 E_long   =         0.0000 Press    =        -0.0047 
---------------- Step   160000 ----- CPU =   5106.4353 (sec) ----------------
TotEng   =     -7161.9580 KinEng   =      3000.4086 Temp     =       304.0093 
PotEng   =    -10162.3666 E_bond   =       660.3498 E_angle  =     -1025.4318 
E_dihed  =     -2274.7448 E_impro  =         0.0000 E_vdwl   =     -7185.2633 
E_coul   =      -337.2764 E_long   =         0.0000 Press    =        -0.0005 
---------------- Step   170000 ----- CPU =   5424.1665 (sec) ----------------
TotEng   =     -7237.9129 KinEng   =      2938.6767 Temp     =       297.7545 
PotEng   =    -10176.5896 E_bond   =       612.7363 E_angle  =      -987.0901 
E_dihed  =     -2267.6854 E_impro  =         0.0000 E_vdwl   =     -7169.9198 
E_coul   =      -364.6306 E_long   =         0.0000 Press    =         0.0061 
---------------- Step   180000 ----- CPU =   5737.4425 (sec) ----------------
TotEng   =     -7316.4489 KinEng   =      2874.1137 Temp     =       291.2128 
PotEng   =    -10190.5626 E_bond   =       621.9150 E_angle  =     -1018.3378 
E_dihed  =     -2262.6507 E_impro  =         0.0000 E_vdwl   =     -7180.9573 
E_coul   =      -350.5318 E_long   =         0.0000 Press    =         0.0153 
---------------- Step   190000 ----- CPU =   6043.5819 (sec) ----------------
TotEng   =     -7179.8075 KinEng   =      3018.7631 Temp     =       305.8691 
PotEng   =    -10198.5706 E_bond   =       603.7577 E_angle  =      -988.5490 
E_dihed  =     -2265.2312 E_impro  =         0.0000 E_vdwl   =     -7176.3371 
E_coul   =      -372.2110 E_long   =         0.0000 Press    =         0.0061 
---------------- Step   200000 ----- CPU =   6358.6279 (sec) ----------------
TotEng   =     -7218.8560 KinEng   =      2904.7440 Temp     =       294.3163 
PotEng   =    -10123.6000 E_bond   =       614.1833 E_angle  =      -958.3823 
E_dihed  =     -2273.3103 E_impro  =         0.0000 E_vdwl   =     -7139.8570 
E_coul   =      -366.2337 E_long   =         0.0000 Press    =         0.0118 
---------------- Step   210000 ----- CPU =   6660.8088 (sec) ----------------
TotEng   =     -7172.5448 KinEng   =      2965.9349 Temp     =       300.5164 
PotEng   =    -10138.4798 E_bond   =       653.8126 E_angle  =      -990.0090 
E_dihed  =     -2277.0818 E_impro  =         0.0000 E_vdwl   =     -7175.0815 
E_coul   =      -350.1200 E_long   =         0.0000 Press    =        -0.0053 
---------------- Step   220000 ----- CPU =   6967.9698 (sec) ----------------
TotEng   =     -7190.0731 KinEng   =      2953.4495 Temp     =       299.2513 
PotEng   =    -10143.5226 E_bond   =       644.6746 E_angle  =      -999.1418 
E_dihed  =     -2262.7877 E_impro  =         0.0000 E_vdwl   =     -7188.2557 
E_coul   =      -338.0121 E_long   =         0.0000 Press    =         0.0022 
---------------- Step   230000 ----- CPU =   7272.7029 (sec) ----------------
TotEng   =     -7163.3944 KinEng   =      2972.5894 Temp     =       301.1906 
PotEng   =    -10135.9838 E_bond   =       597.8071 E_angle  =      -967.2137 
E_dihed  =     -2270.1622 E_impro  =         0.0000 E_vdwl   =     -7159.2168 
E_coul   =      -337.1983 E_long   =         0.0000 Press    =         0.0078 
---------------- Step   240000 ----- CPU =   7584.0841 (sec) ----------------
TotEng   =     -7158.6945 KinEng   =      2915.6183 Temp     =       295.4182 
PotEng   =    -10074.3128 E_bond   =       634.4255 E_angle  =      -919.2591 
E_dihed  =     -2270.9337 E_impro  =         0.0000 E_vdwl   =     -7167.0935 
E_coul   =      -351.4519 E_long   =         0.0000 Press    =         0.0006 
---------------- Step   250000 ----- CPU =   7906.8189 (sec) ----------------
TotEng   =     -7131.9476 KinEng   =      2979.8789 Temp     =       301.9292 
PotEng   =    -10111.8265 E_bond   =       636.1732 E_angle  =      -964.9271 
E_dihed  =     -2259.3785 E_impro  =         0.0000 E_vdwl   =     -7166.8494 
E_coul   =      -356.8447 E_long   =         0.0000 Press    =         0.0058 
---------------- Step   260000 ----- CPU =   8237.2014 (sec) ----------------
TotEng   =     -7185.1177 KinEng   =      2982.9105 Temp     =       302.2364 
PotEng   =    -10168.0282 E_bond   =       641.1269 E_angle  =      -978.1605 
E_dihed  =     -2261.5813 E_impro  =         0.0000 E_vdwl   =     -7193.0364 
E_coul   =      -376.3768 E_long   =         0.0000 Press    =         0.0004 
---------------- Step   270000 ----- CPU =   8588.1966 (sec) ----------------
TotEng   =     -7226.6969 KinEng   =      2943.3774 Temp     =       298.2308 
PotEng   =    -10170.0743 E_bond   =       611.1787 E_angle  =      -998.0644 
E_dihed  =     -2250.1837 E_impro  =         0.0000 E_vdwl   =     -7167.8677 
E_coul   =      -365.1373 E_long   =         0.0000 Press    =         0.0181 
---------------- Step   280000 ----- CPU =   8941.6011 (sec) ----------------
TotEng   =     -7142.0246 KinEng   =      2989.1741 Temp     =       302.8710 
PotEng   =    -10131.1988 E_bond   =       631.3856 E_angle  =      -962.2060 
E_dihed  =     -2251.4868 E_impro  =         0.0000 E_vdwl   =     -7170.4353 
E_coul   =      -378.4563 E_long   =         0.0000 Press    =         0.0130 
---------------- Step   290000 ----- CPU =   9288.5463 (sec) ----------------
TotEng   =     -7243.4781 KinEng   =      2967.1421 Temp     =       300.6387 
PotEng   =    -10210.6202 E_bond   =       627.4585 E_angle  =     -1000.2823 
E_dihed  =     -2272.5122 E_impro  =         0.0000 E_vdwl   =     -7180.9973 
E_coul   =      -384.2868 E_long   =         0.0000 Press    =         0.0084 
---------------- Step   300000 ----- CPU =   9612.8813 (sec) ----------------
TotEng   =     -7193.1540 KinEng   =      2950.5336 Temp     =       298.9559 
PotEng   =    -10143.6876 E_bond   =       639.3325 E_angle  =      -966.3836 
E_dihed  =     -2242.4435 E_impro  =         0.0000 E_vdwl   =     -7203.9379 
E_coul   =      -370.2551 E_long   =         0.0000 Press    =         0.0003 
---------------- Step   310000 ----- CPU =   9931.4474 (sec) ----------------
TotEng   =     -7184.9517 KinEng   =      2999.8948 Temp     =       303.9573 
PotEng   =    -10184.8465 E_bond   =       624.1530 E_angle  =      -982.8329 
E_dihed  =     -2257.5422 E_impro  =         0.0000 E_vdwl   =     -7202.2855 
E_coul   =      -366.3389 E_long   =         0.0000 Press    =        -0.0000 
---------------- Step   320000 ----- CPU =  10244.1844 (sec) ----------------
TotEng   =     -7286.5960 KinEng   =      2919.5216 Temp     =       295.8136 
PotEng   =    -10206.1176 E_bond   =       592.2067 E_angle  =      -983.3553 
E_dihed  =     -2273.8500 E_impro  =         0.0000 E_vdwl   =     -7193.2796 
E_coul   =      -347.8394 E_long   =         0.0000 Press    =         0.0007 
---------------- Step   330000 ----- CPU =  10551.8159 (sec) ----------------
TotEng   =     -7237.5553 KinEng   =      2920.1749 Temp     =       295.8798 
PotEng   =    -10157.7302 E_bond   =       630.2027 E_angle  =      -983.4390 
E_dihed  =     -2261.4126 E_impro  =         0.0000 E_vdwl   =     -7177.4352 
E_coul   =      -365.6461 E_long   =         0.0000 Press    =         0.0046 
---------------- Step   340000 ----- CPU =  10864.8631 (sec) ----------------
TotEng   =     -7182.4909 KinEng   =      3021.1138 Temp     =       306.1072 
PotEng   =    -10203.6047 E_bond   =       633.8657 E_angle  =     -1014.4762 
E_dihed  =     -2269.4406 E_impro  =         0.0000 E_vdwl   =     -7190.7742 
E_coul   =      -362.7794 E_long   =         0.0000 Press    =         0.0142 
---------------- Step   350000 ----- CPU =  11195.6992 (sec) ----------------
TotEng   =     -7082.3134 KinEng   =      2976.8203 Temp     =       301.6193 
PotEng   =    -10059.1338 E_bond   =       668.7950 E_angle  =      -944.9575 
E_dihed  =     -2258.4010 E_impro  =         0.0000 E_vdwl   =     -7178.1085 
E_coul   =      -346.4618 E_long   =         0.0000 Press    =         0.0112 
---------------- Step   360000 ----- CPU =  11548.8631 (sec) ----------------
TotEng   =     -7381.9442 KinEng   =      2893.5450 Temp     =       293.1816 
PotEng   =    -10275.4892 E_bond   =       604.4670 E_angle  =     -1019.8539 
E_dihed  =     -2283.3892 E_impro  =         0.0000 E_vdwl   =     -7197.4573 
E_coul   =      -379.2557 E_long   =         0.0000 Press    =        -0.0006 
---------------- Step   370000 ----- CPU =  11938.1187 (sec) ----------------
TotEng   =     -7330.2406 KinEng   =      2930.2635 Temp     =       296.9020 
PotEng   =    -10260.5041 E_bond   =       585.5644 E_angle  =     -1013.0927 
E_dihed  =     -2261.0041 E_impro  =         0.0000 E_vdwl   =     -7180.7879 
E_coul   =      -391.1838 E_long   =         0.0000 Press    =        -0.0078 
---------------- Step   380000 ----- CPU =  12352.1167 (sec) ----------------
TotEng   =     -7154.8439 KinEng   =      2971.9481 Temp     =       301.1256 
PotEng   =    -10126.7919 E_bond   =       634.3969 E_angle  =      -975.7976 
E_dihed  =     -2267.1499 E_impro  =         0.0000 E_vdwl   =     -7162.2295 
E_coul   =      -356.0119 E_long   =         0.0000 Press    =         0.0182 
---------------- Step   390000 ----- CPU =  12775.2597 (sec) ----------------
TotEng   =     -7261.6710 KinEng   =      2958.6460 Temp     =       299.7778 
PotEng   =    -10220.3170 E_bond   =       649.9820 E_angle  =     -1036.3733 
E_dihed  =     -2265.8497 E_impro  =         0.0000 E_vdwl   =     -7210.0738 
E_coul   =      -358.0022 E_long   =         0.0000 Press    =        -0.0026 
---------------- Step   400000 ----- CPU =  13192.6795 (sec) ----------------
TotEng   =     -7177.3713 KinEng   =      2935.3573 Temp     =       297.4182 
PotEng   =    -10112.7286 E_bond   =       642.3472 E_angle  =      -943.1476 
E_dihed  =     -2262.0204 E_impro  =         0.0000 E_vdwl   =     -7175.3453 
E_coul   =      -374.5626 E_long   =         0.0000 Press    =        -0.0010 
---------------- Step   410000 ----- CPU =  13612.2207 (sec) ----------------
TotEng   =     -7134.4913 KinEng   =      3018.3004 Temp     =       305.8222 
PotEng   =    -10152.7917 E_bond   =       603.1734 E_angle  =      -961.4852 
E_dihed  =     -2267.6324 E_impro  =         0.0000 E_vdwl   =     -7177.6676 
E_coul   =      -349.1799 E_long   =         0.0000 Press    =         0.0088 
---------------- Step   420000 ----- CPU =  14036.0695 (sec) ----------------
TotEng   =     -7208.1909 KinEng   =      2940.7736 Temp     =       297.9670 
PotEng   =    -10148.9645 E_bond   =       640.9298 E_angle  =      -990.0160 
E_dihed  =     -2264.2541 E_impro  =         0.0000 E_vdwl   =     -7188.1117 
E_coul   =      -347.5124 E_long   =         0.0000 Press    =         0.0099 
---------------- Step   430000 ----- CPU =  14458.1779 (sec) ----------------
TotEng   =     -7061.5525 KinEng   =      3066.0989 Temp     =       310.6652 
PotEng   =    -10127.6514 E_bond   =       653.8762 E_angle  =     -1000.9887 
E_dihed  =     -2254.9003 E_impro  =         0.0000 E_vdwl   =     -7175.2950 
E_coul   =      -350.3436 E_long   =         0.0000 Press    =        -0.0085 
---------------- Step   440000 ----- CPU =  14893.7019 (sec) ----------------
TotEng   =     -7273.6517 KinEng   =      2913.9147 Temp     =       295.2455 
PotEng   =    -10187.5664 E_bond   =       657.9556 E_angle  =     -1035.0212 
E_dihed  =     -2281.6873 E_impro  =         0.0000 E_vdwl   =     -7162.6567 
E_coul   =      -366.1568 E_long   =         0.0000 Press    =        -0.0106 
---------------- Step   450000 ----- CPU =  15324.8626 (sec) ----------------
TotEng   =     -7151.1008 KinEng   =      3039.9965 Temp     =       308.0205 
PotEng   =    -10191.0973 E_bond   =       668.6546 E_angle  =     -1043.3853 
E_dihed  =     -2273.1829 E_impro  =         0.0000 E_vdwl   =     -7168.5630 
E_coul   =      -374.6206 E_long   =         0.0000 Press    =         0.0209 
---------------- Step   460000 ----- CPU =  15741.8865 (sec) ----------------
TotEng   =     -7269.3305 KinEng   =      2931.4787 Temp     =       297.0252 
PotEng   =    -10200.8092 E_bond   =       631.8006 E_angle  =     -1017.2351 
E_dihed  =     -2259.7532 E_impro  =         0.0000 E_vdwl   =     -7180.8450 
E_coul   =      -374.7766 E_long   =         0.0000 Press    =         0.0126 
---------------- Step   470000 ----- CPU =  16132.4985 (sec) ----------------
TotEng   =     -7299.8994 KinEng   =      2881.1853 Temp     =       291.9293 
PotEng   =    -10181.0846 E_bond   =       625.0816 E_angle  =     -1014.2994 
E_dihed  =     -2268.4684 E_impro  =         0.0000 E_vdwl   =     -7164.8744 
E_coul   =      -358.5240 E_long   =         0.0000 Press    =         0.0069 
---------------- Step   480000 ----- CPU =  16510.0076 (sec) ----------------
TotEng   =     -7181.3559 KinEng   =      2939.1473 Temp     =       297.8022 
PotEng   =    -10120.5032 E_bond   =       636.7330 E_angle  =      -973.2306 
E_dihed  =     -2237.4588 E_impro  =         0.0000 E_vdwl   =     -7186.3412 
E_coul   =      -360.2056 E_long   =         0.0000 Press    =        -0.0108 
---------------- Step   490000 ----- CPU =  16877.3755 (sec) ----------------
TotEng   =     -7151.4663 KinEng   =      2957.2064 Temp     =       299.6320 
PotEng   =    -10108.6727 E_bond   =       635.8073 E_angle  =      -970.3257 
E_dihed  =     -2265.0090 E_impro  =         0.0000 E_vdwl   =     -7152.0151 
E_coul   =      -357.1303 E_long   =         0.0000 Press    =         0.0049 
---------------- Step   500000 ----- CPU =  17241.2450 (sec) ----------------
TotEng   =     -7146.4687 KinEng   =      3011.9349 Temp     =       305.1772 
PotEng   =    -10158.4036 E_bond   =       648.2827 E_angle  =     -1023.9015 
E_dihed  =     -2261.0623 E_impro  =         0.0000 E_vdwl   =     -7160.8164 
E_coul   =      -360.9062 E_long   =         0.0000 Press    =        -0.0045 
Loop time of 17241.2 on 2 procs for 500000 steps with 7872 atoms

Performance: 25.056 ns/day, 0.958 hours/ns, 29.000 timesteps/s
99.9% CPU use with 2 MPI tasks x no OpenMP threads

MPI task timing breakdown:
Section |  min time  |  avg time  |  max time  |%varavg| %total
---------------------------------------------------------------
Pair    | 12517      | 13185      | 13853      | 582.0 | 76.47
Bond    | 367.68     | 398.94     | 430.21     | 156.5 |  2.31
Neigh   | 1165.7     | 1165.9     | 1166.1     |   0.6 |  6.76
Comm    | 1610.7     | 2306.6     | 3002.5     |1448.9 | 13.38
Output  | 0.23226    | 0.29487    | 0.35748    |  11.5 |  0.00
Modify  | 160.92     | 161.77     | 162.63     |   6.7 |  0.94
Other   |            | 22.96      |            |       |  0.13

Nlocal:    3936 ave 4705 max 3167 min
Histogram: 1 0 0 0 0 0 0 0 0 1
Nghost:    2575.5 ave 4013 max 1138 min
Histogram: 1 0 0 0 0 0 0 0 0 1
Neighs:    725826 ave 896420 max 555233 min
Histogram: 1 0 0 0 0 0 0 0 0 1

Total # of neighbors = 1451653
Ave neighs/atom = 184.407
Ave special neighs/atom = 6.61992
Neighbor list builds = 11910
Dangerous builds = 0
Total wall time: 4:47:25
