LAMMPS (5 Nov 2016)
Processor partition = 0
# For lammps simulation
units               real
atom_style          awsemmd
boundary            p p p
newton              on  #yes

#   ---         Variables for debye huckel potential        ---     #
#   parallel replica temperatures
variable            T   equal   300
variable v1 equal random(1,1000,16902)
variable            random      equal   round(v_v1)

variable            salt        equal   150.0       # Salt concentration [mM]
variable            ldby        equal   7.853761    # debye screen length, depend on both T and salt, determined from known formula given that dielec=78
variable            ldbi        equal   1.0/v_ldby  # debye screen length
variable            cut_coul    equal   v_ldby*4.0  # coulombic cutoff is four times the debye length.
                                                    # This is consistent with the DNA model
variable            cut_lj      equal   15.0
variable            cut_lj_pair equal   20.0
variable            dielec      equal   78.0

read_data           /nfs/pool002/users/smliu/tetra-nucl-msm/lammps-structures/multi_nucleo-v1.0-167-4-seq-1zbb/single_nucleo/post_processing/data.prot_dna
  orthogonal box = (-1000 -1000 -1000) to (1000 1000 1000)
  1 by 1 by 1 MPI processor grid
  reading atoms ...
  7782 atoms
  scanning bonds ...
  2 = max bonds/atom
  scanning angles ...
  3 = max angles/atom
  scanning dihedrals ...
  2 = max dihedrals/atom
  reading bonds ...
  7748 bonds
  reading angles ...
  10300 angles
  reading dihedrals ...
  7892 dihedrals
  3 = max # of 1-2 neighbors
  4 = max # of 1-3 neighbors
  6 = max # of 1-4 neighbors
  9 = max # of special neighbors
#read_dump           ../../DUMP_initial.dcd 0 x y z box no format molfile dcd /home/xclin/lib/vmd.old/plugins/LINUXAMD64/molfile

variable            inputdir    string "/nfs/pool002/users/smliu/tetra-nucl-msm/lammps-structures/multi_nucleo-v1.0-167-4-seq-1zbb/single_nucleo/post_processing"
# Specify the different interaction styles
bond_style          hybrid list ${inputdir}/dna_list_files/in00_bond.list list/ca ${inputdir}/prot_list_files/ca_bond_list.txt
bond_style          hybrid list /nfs/pool002/users/smliu/tetra-nucl-msm/lammps-structures/multi_nucleo-v1.0-167-4-seq-1zbb/single_nucleo/post_processing/dna_list_files/in00_bond.list list/ca ${inputdir}/prot_list_files/ca_bond_list.txt
bond_style          hybrid list /nfs/pool002/users/smliu/tetra-nucl-msm/lammps-structures/multi_nucleo-v1.0-167-4-seq-1zbb/single_nucleo/post_processing/dna_list_files/in00_bond.list list/ca /nfs/pool002/users/smliu/tetra-nucl-msm/lammps-structures/multi_nucleo-v1.0-167-4-seq-1zbb/single_nucleo/post_processing/prot_list_files/ca_bond_list.txt
angle_style         hybrid stacking/3spn2   list    ${inputdir}/dna_list_files/in00_angl.list list/ca ${inputdir}/prot_list_files/ca_angle_list.txt
angle_style         hybrid stacking/3spn2   list    /nfs/pool002/users/smliu/tetra-nucl-msm/lammps-structures/multi_nucleo-v1.0-167-4-seq-1zbb/single_nucleo/post_processing/dna_list_files/in00_angl.list list/ca ${inputdir}/prot_list_files/ca_angle_list.txt
angle_style         hybrid stacking/3spn2   list    /nfs/pool002/users/smliu/tetra-nucl-msm/lammps-structures/multi_nucleo-v1.0-167-4-seq-1zbb/single_nucleo/post_processing/dna_list_files/in00_angl.list list/ca /nfs/pool002/users/smliu/tetra-nucl-msm/lammps-structures/multi_nucleo-v1.0-167-4-seq-1zbb/single_nucleo/post_processing/prot_list_files/ca_angle_list.txt
dihedral_style      hybrid list ${inputdir}/dna_list_files/in00_dihe.list list/ca ${inputdir}/prot_list_files/ca_dihed_list.txt
dihedral_style      hybrid list /nfs/pool002/users/smliu/tetra-nucl-msm/lammps-structures/multi_nucleo-v1.0-167-4-seq-1zbb/single_nucleo/post_processing/dna_list_files/in00_dihe.list list/ca ${inputdir}/prot_list_files/ca_dihed_list.txt
dihedral_style      hybrid list /nfs/pool002/users/smliu/tetra-nucl-msm/lammps-structures/multi_nucleo-v1.0-167-4-seq-1zbb/single_nucleo/post_processing/dna_list_files/in00_dihe.list list/ca /nfs/pool002/users/smliu/tetra-nucl-msm/lammps-structures/multi_nucleo-v1.0-167-4-seq-1zbb/single_nucleo/post_processing/prot_list_files/ca_dihed_list.txt


pair_style          hybrid/overlay 3spn2 bdna/curv ${T} ${salt} 18.0 50.0 list ${inputdir}/prot_list_files/ca_pair_list.txt ${cut_lj_pair} nocheck lj/cut/coul/debye ${ldbi} 10.0 ${cut_coul}
pair_style          hybrid/overlay 3spn2 bdna/curv 300 ${salt} 18.0 50.0 list ${inputdir}/prot_list_files/ca_pair_list.txt ${cut_lj_pair} nocheck lj/cut/coul/debye ${ldbi} 10.0 ${cut_coul}
pair_style          hybrid/overlay 3spn2 bdna/curv 300 150 18.0 50.0 list ${inputdir}/prot_list_files/ca_pair_list.txt ${cut_lj_pair} nocheck lj/cut/coul/debye ${ldbi} 10.0 ${cut_coul}
pair_style          hybrid/overlay 3spn2 bdna/curv 300 150 18.0 50.0 list /nfs/pool002/users/smliu/tetra-nucl-msm/lammps-structures/multi_nucleo-v1.0-167-4-seq-1zbb/single_nucleo/post_processing/prot_list_files/ca_pair_list.txt ${cut_lj_pair} nocheck lj/cut/coul/debye ${ldbi} 10.0 ${cut_coul}
pair_style          hybrid/overlay 3spn2 bdna/curv 300 150 18.0 50.0 list /nfs/pool002/users/smliu/tetra-nucl-msm/lammps-structures/multi_nucleo-v1.0-167-4-seq-1zbb/single_nucleo/post_processing/prot_list_files/ca_pair_list.txt 20 nocheck lj/cut/coul/debye ${ldbi} 10.0 ${cut_coul}
pair_style          hybrid/overlay 3spn2 bdna/curv 300 150 18.0 50.0 list /nfs/pool002/users/smliu/tetra-nucl-msm/lammps-structures/multi_nucleo-v1.0-167-4-seq-1zbb/single_nucleo/post_processing/prot_list_files/ca_pair_list.txt 20 nocheck lj/cut/coul/debye 0.127327531357269 10.0 ${cut_coul}
pair_style          hybrid/overlay 3spn2 bdna/curv 300 150 18.0 50.0 list /nfs/pool002/users/smliu/tetra-nucl-msm/lammps-structures/multi_nucleo-v1.0-167-4-seq-1zbb/single_nucleo/post_processing/prot_list_files/ca_pair_list.txt 20 nocheck lj/cut/coul/debye 0.127327531357269 10.0 31.415044
Read 9383 (0/0/0/9383) interacting pairs from /nfs/pool002/users/smliu/tetra-nucl-msm/lammps-structures/multi_nucleo-v1.0-167-4-seq-1zbb/single_nucleo/post_processing/prot_list_files/ca_pair_list.txt
pair_coeff          * * list

dielectric          ${dielec}
dielectric          78

# read in pair interaction
#include           /nobackup1/binz/chromatin_fiber_CG/tetra/commons/post_processing/forcefield_pp_interaction/proteinDna_pairCoeff.in
include           /nobackup1c/users/smliu/test-smog-3spn2-openmm/ff-ppMJ/proteinDna_pairCoeff_variable_cut_coul.in

# dna pair-wise interaction
pair_coeff      1      1 3spn2      0.23900600      4.50000000
pair_coeff      1      2 3spn2      0.23900600      5.35000000
pair_coeff      1      3 3spn2      0.23900600      4.95000000
pair_coeff      1      4 3spn2      0.23900600      5.80000000
pair_coeff      1      5 3spn2      0.23900600      4.70000000
pair_coeff      1      6 3spn2      0.23900600      5.45000000
pair_coeff      1      7 3spn2      0.23900600      4.95000000
pair_coeff      1      8 3spn2      0.23900600      5.80000000
pair_coeff      1      9 3spn2      0.23900600      4.70000000
pair_coeff      1     10 3spn2      0.23900600      5.45000000
pair_coeff      1     11 3spn2      0.23900600      4.95000000
pair_coeff      1     12 3spn2      0.23900600      5.80000000
pair_coeff      1     13 3spn2      0.23900600      4.70000000
pair_coeff      1     14 3spn2      0.23900600      5.45000000
pair_coeff      2      2 3spn2      0.23900600      6.20000000
pair_coeff      2      3 3spn2      0.23900600      5.80000000
pair_coeff      2      4 3spn2      0.23900600      6.65000000
pair_coeff      2      5 3spn2      0.23900600      5.55000000
pair_coeff      2      6 3spn2      0.23900600      6.30000000
pair_coeff      2      7 3spn2      0.23900600      5.80000000
pair_coeff      2      8 3spn2      0.23900600      6.65000000
pair_coeff      2      9 3spn2      0.23900600      5.55000000
pair_coeff      2     10 3spn2      0.23900600      6.30000000
pair_coeff      2     11 3spn2      0.23900600      5.80000000
pair_coeff      2     12 3spn2      0.23900600      6.65000000
pair_coeff      2     13 3spn2      0.23900600      5.55000000
pair_coeff      2     14 3spn2      0.23900600      6.30000000
pair_coeff      3      3 3spn2      0.23900600      5.40000000
pair_coeff      3      4 3spn2      0.23900600      6.25000000
pair_coeff      3      5 3spn2      0.23900600      5.15000000
pair_coeff      3      6 3spn2      0.23900600      5.90000000
pair_coeff      3      7 3spn2      0.23900600      5.40000000
pair_coeff      3      8 3spn2      0.23900600      6.25000000
pair_coeff      3      9 3spn2      0.23900600      5.15000000
pair_coeff      3     10 3spn2      0.23900600      5.90000000
pair_coeff      3     11 3spn2      0.23900600      5.40000000
pair_coeff      3     12 3spn2      0.23900600      6.25000000
pair_coeff      3     13 3spn2      0.23900600      5.15000000
pair_coeff      3     14 3spn2      0.23900600      5.90000000
pair_coeff      4      4 3spn2      0.23900600      7.10000000
pair_coeff      4      5 3spn2      0.23900600      6.00000000
pair_coeff      4      6 3spn2      0.23900600      6.75000000
pair_coeff      4      7 3spn2      0.23900600      6.25000000
pair_coeff      4      8 3spn2      0.23900600      7.10000000
pair_coeff      4      9 3spn2      0.23900600      6.00000000
pair_coeff      4     10 3spn2      0.23900600      6.75000000
pair_coeff      4     11 3spn2      0.23900600      6.25000000
pair_coeff      4     12 3spn2      0.23900600      7.10000000
pair_coeff      4     13 3spn2      0.23900600      6.00000000
pair_coeff      4     14 3spn2      0.23900600      6.75000000
pair_coeff      5      5 3spn2      0.23900600      4.90000000
pair_coeff      5      6 3spn2      0.23900600      5.65000000
pair_coeff      5      7 3spn2      0.23900600      5.15000000
pair_coeff      5      8 3spn2      0.23900600      6.00000000
pair_coeff      5      9 3spn2      0.23900600      4.90000000
pair_coeff      5     10 3spn2      0.23900600      5.65000000
pair_coeff      5     11 3spn2      0.23900600      5.15000000
pair_coeff      5     12 3spn2      0.23900600      6.00000000
pair_coeff      5     13 3spn2      0.23900600      4.90000000
pair_coeff      5     14 3spn2      0.23900600      5.65000000
pair_coeff      6      6 3spn2      0.23900600      6.40000000
pair_coeff      6      7 3spn2      0.23900600      5.90000000
pair_coeff      6      8 3spn2      0.23900600      6.75000000
pair_coeff      6      9 3spn2      0.23900600      5.65000000
pair_coeff      6     10 3spn2      0.23900600      6.40000000
pair_coeff      6     11 3spn2      0.23900600      5.90000000
pair_coeff      6     12 3spn2      0.23900600      6.75000000
pair_coeff      6     13 3spn2      0.23900600      5.65000000
pair_coeff      6     14 3spn2      0.23900600      6.40000000
pair_coeff      7      7 3spn2      0.23900600      5.40000000
pair_coeff      7      8 3spn2      0.23900600      6.25000000
pair_coeff      7      9 3spn2      0.23900600      5.15000000
pair_coeff      7     10 3spn2      0.23900600      5.90000000
pair_coeff      7     11 3spn2      0.23900600      5.40000000
pair_coeff      7     12 3spn2      0.23900600      6.25000000
pair_coeff      7     13 3spn2      0.23900600      5.15000000
pair_coeff      7     14 3spn2      0.23900600      5.90000000
pair_coeff      8      8 3spn2      0.23900600      7.10000000
pair_coeff      8      9 3spn2      0.23900600      6.00000000
pair_coeff      8     10 3spn2      0.23900600      6.75000000
pair_coeff      8     11 3spn2      0.23900600      6.25000000
pair_coeff      8     12 3spn2      0.23900600      7.10000000
pair_coeff      8     13 3spn2      0.23900600      6.00000000
pair_coeff      8     14 3spn2      0.23900600      6.75000000
pair_coeff      9      9 3spn2      0.23900600      4.90000000
pair_coeff      9     10 3spn2      0.23900600      5.65000000
pair_coeff      9     11 3spn2      0.23900600      5.15000000
pair_coeff      9     12 3spn2      0.23900600      6.00000000
pair_coeff      9     13 3spn2      0.23900600      4.90000000
pair_coeff      9     14 3spn2      0.23900600      5.65000000
pair_coeff     10     10 3spn2      0.23900600      6.40000000
pair_coeff     10     11 3spn2      0.23900600      5.90000000
pair_coeff     10     12 3spn2      0.23900600      6.75000000
pair_coeff     10     13 3spn2      0.23900600      5.65000000
pair_coeff     10     14 3spn2      0.23900600      6.40000000
pair_coeff     11     11 3spn2      0.23900600      5.40000000
pair_coeff     11     12 3spn2      0.23900600      6.25000000
pair_coeff     11     13 3spn2      0.23900600      5.15000000
pair_coeff     11     14 3spn2      0.23900600      5.90000000
pair_coeff     12     12 3spn2      0.23900600      7.10000000
pair_coeff     12     13 3spn2      0.23900600      6.00000000
pair_coeff     12     14 3spn2      0.23900600      6.75000000
pair_coeff     13     13 3spn2      0.23900600      4.90000000
pair_coeff     13     14 3spn2      0.23900600      5.65000000
pair_coeff     14     14 3spn2      0.23900600      6.40000000

# protein dna pair-wise interaction
pair_coeff      1     15 lj/cut/coul/debye      0.02987572      5.70000000     14.25000000     ${cut_coul}
pair_coeff      1     15 lj/cut/coul/debye      0.02987572      5.70000000     14.25000000     31.415044
pair_coeff      1     16 lj/cut/coul/debye      0.02987572      5.70000000     14.25000000     ${cut_coul}
pair_coeff      1     16 lj/cut/coul/debye      0.02987572      5.70000000     14.25000000     31.415044
pair_coeff      1     17 lj/cut/coul/debye      0.02987572      5.70000000     14.25000000     ${cut_coul}
pair_coeff      1     17 lj/cut/coul/debye      0.02987572      5.70000000     14.25000000     31.415044
pair_coeff      1     18 lj/cut/coul/debye      0.02987572      5.70000000     14.25000000     ${cut_coul}
pair_coeff      1     18 lj/cut/coul/debye      0.02987572      5.70000000     14.25000000     31.415044
pair_coeff      1     19 lj/cut/coul/debye      0.02987572      5.70000000     14.25000000     ${cut_coul}
pair_coeff      1     19 lj/cut/coul/debye      0.02987572      5.70000000     14.25000000     31.415044
pair_coeff      1     20 lj/cut/coul/debye      0.02987572      5.70000000     14.25000000     ${cut_coul}
pair_coeff      1     20 lj/cut/coul/debye      0.02987572      5.70000000     14.25000000     31.415044
pair_coeff      1     21 lj/cut/coul/debye      0.02987572      5.70000000     14.25000000     ${cut_coul}
pair_coeff      1     21 lj/cut/coul/debye      0.02987572      5.70000000     14.25000000     31.415044
pair_coeff      1     22 lj/cut/coul/debye      0.02987572      5.70000000     14.25000000     ${cut_coul}
pair_coeff      1     22 lj/cut/coul/debye      0.02987572      5.70000000     14.25000000     31.415044
pair_coeff      1     23 lj/cut/coul/debye      0.02987572      5.70000000     14.25000000     ${cut_coul}
pair_coeff      1     23 lj/cut/coul/debye      0.02987572      5.70000000     14.25000000     31.415044
pair_coeff      1     24 lj/cut/coul/debye      0.02987572      5.70000000     14.25000000     ${cut_coul}
pair_coeff      1     24 lj/cut/coul/debye      0.02987572      5.70000000     14.25000000     31.415044
pair_coeff      1     25 lj/cut/coul/debye      0.02987572      5.70000000     14.25000000     ${cut_coul}
pair_coeff      1     25 lj/cut/coul/debye      0.02987572      5.70000000     14.25000000     31.415044
pair_coeff      1     26 lj/cut/coul/debye      0.02987572      5.70000000     14.25000000     ${cut_coul}
pair_coeff      1     26 lj/cut/coul/debye      0.02987572      5.70000000     14.25000000     31.415044
pair_coeff      1     27 lj/cut/coul/debye      0.02987572      5.70000000     14.25000000     ${cut_coul}
pair_coeff      1     27 lj/cut/coul/debye      0.02987572      5.70000000     14.25000000     31.415044
pair_coeff      1     28 lj/cut/coul/debye      0.02987572      5.70000000     14.25000000     ${cut_coul}
pair_coeff      1     28 lj/cut/coul/debye      0.02987572      5.70000000     14.25000000     31.415044
pair_coeff      1     29 lj/cut/coul/debye      0.02987572      5.70000000     14.25000000     ${cut_coul}
pair_coeff      1     29 lj/cut/coul/debye      0.02987572      5.70000000     14.25000000     31.415044
pair_coeff      1     30 lj/cut/coul/debye      0.02987572      5.70000000     14.25000000     ${cut_coul}
pair_coeff      1     30 lj/cut/coul/debye      0.02987572      5.70000000     14.25000000     31.415044
pair_coeff      1     31 lj/cut/coul/debye      0.02987572      5.70000000     14.25000000     ${cut_coul}
pair_coeff      1     31 lj/cut/coul/debye      0.02987572      5.70000000     14.25000000     31.415044
pair_coeff      1     32 lj/cut/coul/debye      0.02987572      5.70000000     14.25000000     ${cut_coul}
pair_coeff      1     32 lj/cut/coul/debye      0.02987572      5.70000000     14.25000000     31.415044
pair_coeff      1     33 lj/cut/coul/debye      0.02987572      5.70000000     14.25000000     ${cut_coul}
pair_coeff      1     33 lj/cut/coul/debye      0.02987572      5.70000000     14.25000000     31.415044
pair_coeff      1     34 lj/cut/coul/debye      0.02987572      5.70000000     14.25000000     ${cut_coul}
pair_coeff      1     34 lj/cut/coul/debye      0.02987572      5.70000000     14.25000000     31.415044
pair_coeff      2     15 lj/cut/coul/debye      0.02987572      5.70000000     14.25000000     ${cut_coul}
pair_coeff      2     15 lj/cut/coul/debye      0.02987572      5.70000000     14.25000000     31.415044
pair_coeff      2     16 lj/cut/coul/debye      0.02987572      5.70000000     14.25000000     ${cut_coul}
pair_coeff      2     16 lj/cut/coul/debye      0.02987572      5.70000000     14.25000000     31.415044
pair_coeff      2     17 lj/cut/coul/debye      0.02987572      5.70000000     14.25000000     ${cut_coul}
pair_coeff      2     17 lj/cut/coul/debye      0.02987572      5.70000000     14.25000000     31.415044
pair_coeff      2     18 lj/cut/coul/debye      0.02987572      5.70000000     14.25000000     ${cut_coul}
pair_coeff      2     18 lj/cut/coul/debye      0.02987572      5.70000000     14.25000000     31.415044
pair_coeff      2     19 lj/cut/coul/debye      0.02987572      5.70000000     14.25000000     ${cut_coul}
pair_coeff      2     19 lj/cut/coul/debye      0.02987572      5.70000000     14.25000000     31.415044
pair_coeff      2     20 lj/cut/coul/debye      0.02987572      5.70000000     14.25000000     ${cut_coul}
pair_coeff      2     20 lj/cut/coul/debye      0.02987572      5.70000000     14.25000000     31.415044
pair_coeff      2     21 lj/cut/coul/debye      0.02987572      5.70000000     14.25000000     ${cut_coul}
pair_coeff      2     21 lj/cut/coul/debye      0.02987572      5.70000000     14.25000000     31.415044
pair_coeff      2     22 lj/cut/coul/debye      0.02987572      5.70000000     14.25000000     ${cut_coul}
pair_coeff      2     22 lj/cut/coul/debye      0.02987572      5.70000000     14.25000000     31.415044
pair_coeff      2     23 lj/cut/coul/debye      0.02987572      5.70000000     14.25000000     ${cut_coul}
pair_coeff      2     23 lj/cut/coul/debye      0.02987572      5.70000000     14.25000000     31.415044
pair_coeff      2     24 lj/cut/coul/debye      0.02987572      5.70000000     14.25000000     ${cut_coul}
pair_coeff      2     24 lj/cut/coul/debye      0.02987572      5.70000000     14.25000000     31.415044
pair_coeff      2     25 lj/cut/coul/debye      0.02987572      5.70000000     14.25000000     ${cut_coul}
pair_coeff      2     25 lj/cut/coul/debye      0.02987572      5.70000000     14.25000000     31.415044
pair_coeff      2     26 lj/cut/coul/debye      0.02987572      5.70000000     14.25000000     ${cut_coul}
pair_coeff      2     26 lj/cut/coul/debye      0.02987572      5.70000000     14.25000000     31.415044
pair_coeff      2     27 lj/cut/coul/debye      0.02987572      5.70000000     14.25000000     ${cut_coul}
pair_coeff      2     27 lj/cut/coul/debye      0.02987572      5.70000000     14.25000000     31.415044
pair_coeff      2     28 lj/cut/coul/debye      0.02987572      5.70000000     14.25000000     ${cut_coul}
pair_coeff      2     28 lj/cut/coul/debye      0.02987572      5.70000000     14.25000000     31.415044
pair_coeff      2     29 lj/cut/coul/debye      0.02987572      5.70000000     14.25000000     ${cut_coul}
pair_coeff      2     29 lj/cut/coul/debye      0.02987572      5.70000000     14.25000000     31.415044
pair_coeff      2     30 lj/cut/coul/debye      0.02987572      5.70000000     14.25000000     ${cut_coul}
pair_coeff      2     30 lj/cut/coul/debye      0.02987572      5.70000000     14.25000000     31.415044
pair_coeff      2     31 lj/cut/coul/debye      0.02987572      5.70000000     14.25000000     ${cut_coul}
pair_coeff      2     31 lj/cut/coul/debye      0.02987572      5.70000000     14.25000000     31.415044
pair_coeff      2     32 lj/cut/coul/debye      0.02987572      5.70000000     14.25000000     ${cut_coul}
pair_coeff      2     32 lj/cut/coul/debye      0.02987572      5.70000000     14.25000000     31.415044
pair_coeff      2     33 lj/cut/coul/debye      0.02987572      5.70000000     14.25000000     ${cut_coul}
pair_coeff      2     33 lj/cut/coul/debye      0.02987572      5.70000000     14.25000000     31.415044
pair_coeff      2     34 lj/cut/coul/debye      0.02987572      5.70000000     14.25000000     ${cut_coul}
pair_coeff      2     34 lj/cut/coul/debye      0.02987572      5.70000000     14.25000000     31.415044
pair_coeff      3     15 lj/cut/coul/debye      0.02987572      5.70000000     14.25000000     ${cut_coul}
pair_coeff      3     15 lj/cut/coul/debye      0.02987572      5.70000000     14.25000000     31.415044
pair_coeff      3     16 lj/cut/coul/debye      0.02987572      5.70000000     14.25000000     ${cut_coul}
pair_coeff      3     16 lj/cut/coul/debye      0.02987572      5.70000000     14.25000000     31.415044
pair_coeff      3     17 lj/cut/coul/debye      0.02987572      5.70000000     14.25000000     ${cut_coul}
pair_coeff      3     17 lj/cut/coul/debye      0.02987572      5.70000000     14.25000000     31.415044
pair_coeff      3     18 lj/cut/coul/debye      0.02987572      5.70000000     14.25000000     ${cut_coul}
pair_coeff      3     18 lj/cut/coul/debye      0.02987572      5.70000000     14.25000000     31.415044
pair_coeff      3     19 lj/cut/coul/debye      0.02987572      5.70000000     14.25000000     ${cut_coul}
pair_coeff      3     19 lj/cut/coul/debye      0.02987572      5.70000000     14.25000000     31.415044
pair_coeff      3     20 lj/cut/coul/debye      0.02987572      5.70000000     14.25000000     ${cut_coul}
pair_coeff      3     20 lj/cut/coul/debye      0.02987572      5.70000000     14.25000000     31.415044
pair_coeff      3     21 lj/cut/coul/debye      0.02987572      5.70000000     14.25000000     ${cut_coul}
pair_coeff      3     21 lj/cut/coul/debye      0.02987572      5.70000000     14.25000000     31.415044
pair_coeff      3     22 lj/cut/coul/debye      0.02987572      5.70000000     14.25000000     ${cut_coul}
pair_coeff      3     22 lj/cut/coul/debye      0.02987572      5.70000000     14.25000000     31.415044
pair_coeff      3     23 lj/cut/coul/debye      0.02987572      5.70000000     14.25000000     ${cut_coul}
pair_coeff      3     23 lj/cut/coul/debye      0.02987572      5.70000000     14.25000000     31.415044
pair_coeff      3     24 lj/cut/coul/debye      0.02987572      5.70000000     14.25000000     ${cut_coul}
pair_coeff      3     24 lj/cut/coul/debye      0.02987572      5.70000000     14.25000000     31.415044
pair_coeff      3     25 lj/cut/coul/debye      0.02987572      5.70000000     14.25000000     ${cut_coul}
pair_coeff      3     25 lj/cut/coul/debye      0.02987572      5.70000000     14.25000000     31.415044
pair_coeff      3     26 lj/cut/coul/debye      0.02987572      5.70000000     14.25000000     ${cut_coul}
pair_coeff      3     26 lj/cut/coul/debye      0.02987572      5.70000000     14.25000000     31.415044
pair_coeff      3     27 lj/cut/coul/debye      0.02987572      5.70000000     14.25000000     ${cut_coul}
pair_coeff      3     27 lj/cut/coul/debye      0.02987572      5.70000000     14.25000000     31.415044
pair_coeff      3     28 lj/cut/coul/debye      0.02987572      5.70000000     14.25000000     ${cut_coul}
pair_coeff      3     28 lj/cut/coul/debye      0.02987572      5.70000000     14.25000000     31.415044
pair_coeff      3     29 lj/cut/coul/debye      0.02987572      5.70000000     14.25000000     ${cut_coul}
pair_coeff      3     29 lj/cut/coul/debye      0.02987572      5.70000000     14.25000000     31.415044
pair_coeff      3     30 lj/cut/coul/debye      0.02987572      5.70000000     14.25000000     ${cut_coul}
pair_coeff      3     30 lj/cut/coul/debye      0.02987572      5.70000000     14.25000000     31.415044
pair_coeff      3     31 lj/cut/coul/debye      0.02987572      5.70000000     14.25000000     ${cut_coul}
pair_coeff      3     31 lj/cut/coul/debye      0.02987572      5.70000000     14.25000000     31.415044
pair_coeff      3     32 lj/cut/coul/debye      0.02987572      5.70000000     14.25000000     ${cut_coul}
pair_coeff      3     32 lj/cut/coul/debye      0.02987572      5.70000000     14.25000000     31.415044
pair_coeff      3     33 lj/cut/coul/debye      0.02987572      5.70000000     14.25000000     ${cut_coul}
pair_coeff      3     33 lj/cut/coul/debye      0.02987572      5.70000000     14.25000000     31.415044
pair_coeff      3     34 lj/cut/coul/debye      0.02987572      5.70000000     14.25000000     ${cut_coul}
pair_coeff      3     34 lj/cut/coul/debye      0.02987572      5.70000000     14.25000000     31.415044
pair_coeff      4     15 lj/cut/coul/debye      0.02987572      5.70000000     14.25000000     ${cut_coul}
pair_coeff      4     15 lj/cut/coul/debye      0.02987572      5.70000000     14.25000000     31.415044
pair_coeff      4     16 lj/cut/coul/debye      0.02987572      5.70000000     14.25000000     ${cut_coul}
pair_coeff      4     16 lj/cut/coul/debye      0.02987572      5.70000000     14.25000000     31.415044
pair_coeff      4     17 lj/cut/coul/debye      0.02987572      5.70000000     14.25000000     ${cut_coul}
pair_coeff      4     17 lj/cut/coul/debye      0.02987572      5.70000000     14.25000000     31.415044
pair_coeff      4     18 lj/cut/coul/debye      0.02987572      5.70000000     14.25000000     ${cut_coul}
pair_coeff      4     18 lj/cut/coul/debye      0.02987572      5.70000000     14.25000000     31.415044
pair_coeff      4     19 lj/cut/coul/debye      0.02987572      5.70000000     14.25000000     ${cut_coul}
pair_coeff      4     19 lj/cut/coul/debye      0.02987572      5.70000000     14.25000000     31.415044
pair_coeff      4     20 lj/cut/coul/debye      0.02987572      5.70000000     14.25000000     ${cut_coul}
pair_coeff      4     20 lj/cut/coul/debye      0.02987572      5.70000000     14.25000000     31.415044
pair_coeff      4     21 lj/cut/coul/debye      0.02987572      5.70000000     14.25000000     ${cut_coul}
pair_coeff      4     21 lj/cut/coul/debye      0.02987572      5.70000000     14.25000000     31.415044
pair_coeff      4     22 lj/cut/coul/debye      0.02987572      5.70000000     14.25000000     ${cut_coul}
pair_coeff      4     22 lj/cut/coul/debye      0.02987572      5.70000000     14.25000000     31.415044
pair_coeff      4     23 lj/cut/coul/debye      0.02987572      5.70000000     14.25000000     ${cut_coul}
pair_coeff      4     23 lj/cut/coul/debye      0.02987572      5.70000000     14.25000000     31.415044
pair_coeff      4     24 lj/cut/coul/debye      0.02987572      5.70000000     14.25000000     ${cut_coul}
pair_coeff      4     24 lj/cut/coul/debye      0.02987572      5.70000000     14.25000000     31.415044
pair_coeff      4     25 lj/cut/coul/debye      0.02987572      5.70000000     14.25000000     ${cut_coul}
pair_coeff      4     25 lj/cut/coul/debye      0.02987572      5.70000000     14.25000000     31.415044
pair_coeff      4     26 lj/cut/coul/debye      0.02987572      5.70000000     14.25000000     ${cut_coul}
pair_coeff      4     26 lj/cut/coul/debye      0.02987572      5.70000000     14.25000000     31.415044
pair_coeff      4     27 lj/cut/coul/debye      0.02987572      5.70000000     14.25000000     ${cut_coul}
pair_coeff      4     27 lj/cut/coul/debye      0.02987572      5.70000000     14.25000000     31.415044
pair_coeff      4     28 lj/cut/coul/debye      0.02987572      5.70000000     14.25000000     ${cut_coul}
pair_coeff      4     28 lj/cut/coul/debye      0.02987572      5.70000000     14.25000000     31.415044
pair_coeff      4     29 lj/cut/coul/debye      0.02987572      5.70000000     14.25000000     ${cut_coul}
pair_coeff      4     29 lj/cut/coul/debye      0.02987572      5.70000000     14.25000000     31.415044
pair_coeff      4     30 lj/cut/coul/debye      0.02987572      5.70000000     14.25000000     ${cut_coul}
pair_coeff      4     30 lj/cut/coul/debye      0.02987572      5.70000000     14.25000000     31.415044
pair_coeff      4     31 lj/cut/coul/debye      0.02987572      5.70000000     14.25000000     ${cut_coul}
pair_coeff      4     31 lj/cut/coul/debye      0.02987572      5.70000000     14.25000000     31.415044
pair_coeff      4     32 lj/cut/coul/debye      0.02987572      5.70000000     14.25000000     ${cut_coul}
pair_coeff      4     32 lj/cut/coul/debye      0.02987572      5.70000000     14.25000000     31.415044
pair_coeff      4     33 lj/cut/coul/debye      0.02987572      5.70000000     14.25000000     ${cut_coul}
pair_coeff      4     33 lj/cut/coul/debye      0.02987572      5.70000000     14.25000000     31.415044
pair_coeff      4     34 lj/cut/coul/debye      0.02987572      5.70000000     14.25000000     ${cut_coul}
pair_coeff      4     34 lj/cut/coul/debye      0.02987572      5.70000000     14.25000000     31.415044
pair_coeff      5     15 lj/cut/coul/debye      0.02987572      5.70000000     14.25000000     ${cut_coul}
pair_coeff      5     15 lj/cut/coul/debye      0.02987572      5.70000000     14.25000000     31.415044
pair_coeff      5     16 lj/cut/coul/debye      0.02987572      5.70000000     14.25000000     ${cut_coul}
pair_coeff      5     16 lj/cut/coul/debye      0.02987572      5.70000000     14.25000000     31.415044
pair_coeff      5     17 lj/cut/coul/debye      0.02987572      5.70000000     14.25000000     ${cut_coul}
pair_coeff      5     17 lj/cut/coul/debye      0.02987572      5.70000000     14.25000000     31.415044
pair_coeff      5     18 lj/cut/coul/debye      0.02987572      5.70000000     14.25000000     ${cut_coul}
pair_coeff      5     18 lj/cut/coul/debye      0.02987572      5.70000000     14.25000000     31.415044
pair_coeff      5     19 lj/cut/coul/debye      0.02987572      5.70000000     14.25000000     ${cut_coul}
pair_coeff      5     19 lj/cut/coul/debye      0.02987572      5.70000000     14.25000000     31.415044
pair_coeff      5     20 lj/cut/coul/debye      0.02987572      5.70000000     14.25000000     ${cut_coul}
pair_coeff      5     20 lj/cut/coul/debye      0.02987572      5.70000000     14.25000000     31.415044
pair_coeff      5     21 lj/cut/coul/debye      0.02987572      5.70000000     14.25000000     ${cut_coul}
pair_coeff      5     21 lj/cut/coul/debye      0.02987572      5.70000000     14.25000000     31.415044
pair_coeff      5     22 lj/cut/coul/debye      0.02987572      5.70000000     14.25000000     ${cut_coul}
pair_coeff      5     22 lj/cut/coul/debye      0.02987572      5.70000000     14.25000000     31.415044
pair_coeff      5     23 lj/cut/coul/debye      0.02987572      5.70000000     14.25000000     ${cut_coul}
pair_coeff      5     23 lj/cut/coul/debye      0.02987572      5.70000000     14.25000000     31.415044
pair_coeff      5     24 lj/cut/coul/debye      0.02987572      5.70000000     14.25000000     ${cut_coul}
pair_coeff      5     24 lj/cut/coul/debye      0.02987572      5.70000000     14.25000000     31.415044
pair_coeff      5     25 lj/cut/coul/debye      0.02987572      5.70000000     14.25000000     ${cut_coul}
pair_coeff      5     25 lj/cut/coul/debye      0.02987572      5.70000000     14.25000000     31.415044
pair_coeff      5     26 lj/cut/coul/debye      0.02987572      5.70000000     14.25000000     ${cut_coul}
pair_coeff      5     26 lj/cut/coul/debye      0.02987572      5.70000000     14.25000000     31.415044
pair_coeff      5     27 lj/cut/coul/debye      0.02987572      5.70000000     14.25000000     ${cut_coul}
pair_coeff      5     27 lj/cut/coul/debye      0.02987572      5.70000000     14.25000000     31.415044
pair_coeff      5     28 lj/cut/coul/debye      0.02987572      5.70000000     14.25000000     ${cut_coul}
pair_coeff      5     28 lj/cut/coul/debye      0.02987572      5.70000000     14.25000000     31.415044
pair_coeff      5     29 lj/cut/coul/debye      0.02987572      5.70000000     14.25000000     ${cut_coul}
pair_coeff      5     29 lj/cut/coul/debye      0.02987572      5.70000000     14.25000000     31.415044
pair_coeff      5     30 lj/cut/coul/debye      0.02987572      5.70000000     14.25000000     ${cut_coul}
pair_coeff      5     30 lj/cut/coul/debye      0.02987572      5.70000000     14.25000000     31.415044
pair_coeff      5     31 lj/cut/coul/debye      0.02987572      5.70000000     14.25000000     ${cut_coul}
pair_coeff      5     31 lj/cut/coul/debye      0.02987572      5.70000000     14.25000000     31.415044
pair_coeff      5     32 lj/cut/coul/debye      0.02987572      5.70000000     14.25000000     ${cut_coul}
pair_coeff      5     32 lj/cut/coul/debye      0.02987572      5.70000000     14.25000000     31.415044
pair_coeff      5     33 lj/cut/coul/debye      0.02987572      5.70000000     14.25000000     ${cut_coul}
pair_coeff      5     33 lj/cut/coul/debye      0.02987572      5.70000000     14.25000000     31.415044
pair_coeff      5     34 lj/cut/coul/debye      0.02987572      5.70000000     14.25000000     ${cut_coul}
pair_coeff      5     34 lj/cut/coul/debye      0.02987572      5.70000000     14.25000000     31.415044
pair_coeff      6     15 lj/cut/coul/debye      0.02987572      5.70000000     14.25000000     ${cut_coul}
pair_coeff      6     15 lj/cut/coul/debye      0.02987572      5.70000000     14.25000000     31.415044
pair_coeff      6     16 lj/cut/coul/debye      0.02987572      5.70000000     14.25000000     ${cut_coul}
pair_coeff      6     16 lj/cut/coul/debye      0.02987572      5.70000000     14.25000000     31.415044
pair_coeff      6     17 lj/cut/coul/debye      0.02987572      5.70000000     14.25000000     ${cut_coul}
pair_coeff      6     17 lj/cut/coul/debye      0.02987572      5.70000000     14.25000000     31.415044
pair_coeff      6     18 lj/cut/coul/debye      0.02987572      5.70000000     14.25000000     ${cut_coul}
pair_coeff      6     18 lj/cut/coul/debye      0.02987572      5.70000000     14.25000000     31.415044
pair_coeff      6     19 lj/cut/coul/debye      0.02987572      5.70000000     14.25000000     ${cut_coul}
pair_coeff      6     19 lj/cut/coul/debye      0.02987572      5.70000000     14.25000000     31.415044
pair_coeff      6     20 lj/cut/coul/debye      0.02987572      5.70000000     14.25000000     ${cut_coul}
pair_coeff      6     20 lj/cut/coul/debye      0.02987572      5.70000000     14.25000000     31.415044
pair_coeff      6     21 lj/cut/coul/debye      0.02987572      5.70000000     14.25000000     ${cut_coul}
pair_coeff      6     21 lj/cut/coul/debye      0.02987572      5.70000000     14.25000000     31.415044
pair_coeff      6     22 lj/cut/coul/debye      0.02987572      5.70000000     14.25000000     ${cut_coul}
pair_coeff      6     22 lj/cut/coul/debye      0.02987572      5.70000000     14.25000000     31.415044
pair_coeff      6     23 lj/cut/coul/debye      0.02987572      5.70000000     14.25000000     ${cut_coul}
pair_coeff      6     23 lj/cut/coul/debye      0.02987572      5.70000000     14.25000000     31.415044
pair_coeff      6     24 lj/cut/coul/debye      0.02987572      5.70000000     14.25000000     ${cut_coul}
pair_coeff      6     24 lj/cut/coul/debye      0.02987572      5.70000000     14.25000000     31.415044
pair_coeff      6     25 lj/cut/coul/debye      0.02987572      5.70000000     14.25000000     ${cut_coul}
pair_coeff      6     25 lj/cut/coul/debye      0.02987572      5.70000000     14.25000000     31.415044
pair_coeff      6     26 lj/cut/coul/debye      0.02987572      5.70000000     14.25000000     ${cut_coul}
pair_coeff      6     26 lj/cut/coul/debye      0.02987572      5.70000000     14.25000000     31.415044
pair_coeff      6     27 lj/cut/coul/debye      0.02987572      5.70000000     14.25000000     ${cut_coul}
pair_coeff      6     27 lj/cut/coul/debye      0.02987572      5.70000000     14.25000000     31.415044
pair_coeff      6     28 lj/cut/coul/debye      0.02987572      5.70000000     14.25000000     ${cut_coul}
pair_coeff      6     28 lj/cut/coul/debye      0.02987572      5.70000000     14.25000000     31.415044
pair_coeff      6     29 lj/cut/coul/debye      0.02987572      5.70000000     14.25000000     ${cut_coul}
pair_coeff      6     29 lj/cut/coul/debye      0.02987572      5.70000000     14.25000000     31.415044
pair_coeff      6     30 lj/cut/coul/debye      0.02987572      5.70000000     14.25000000     ${cut_coul}
pair_coeff      6     30 lj/cut/coul/debye      0.02987572      5.70000000     14.25000000     31.415044
pair_coeff      6     31 lj/cut/coul/debye      0.02987572      5.70000000     14.25000000     ${cut_coul}
pair_coeff      6     31 lj/cut/coul/debye      0.02987572      5.70000000     14.25000000     31.415044
pair_coeff      6     32 lj/cut/coul/debye      0.02987572      5.70000000     14.25000000     ${cut_coul}
pair_coeff      6     32 lj/cut/coul/debye      0.02987572      5.70000000     14.25000000     31.415044
pair_coeff      6     33 lj/cut/coul/debye      0.02987572      5.70000000     14.25000000     ${cut_coul}
pair_coeff      6     33 lj/cut/coul/debye      0.02987572      5.70000000     14.25000000     31.415044
pair_coeff      6     34 lj/cut/coul/debye      0.02987572      5.70000000     14.25000000     ${cut_coul}
pair_coeff      6     34 lj/cut/coul/debye      0.02987572      5.70000000     14.25000000     31.415044
pair_coeff      7     15 lj/cut/coul/debye      0.02987572      5.70000000     14.25000000     ${cut_coul}
pair_coeff      7     15 lj/cut/coul/debye      0.02987572      5.70000000     14.25000000     31.415044
pair_coeff      7     16 lj/cut/coul/debye      0.02987572      5.70000000     14.25000000     ${cut_coul}
pair_coeff      7     16 lj/cut/coul/debye      0.02987572      5.70000000     14.25000000     31.415044
pair_coeff      7     17 lj/cut/coul/debye      0.02987572      5.70000000     14.25000000     ${cut_coul}
pair_coeff      7     17 lj/cut/coul/debye      0.02987572      5.70000000     14.25000000     31.415044
pair_coeff      7     18 lj/cut/coul/debye      0.02987572      5.70000000     14.25000000     ${cut_coul}
pair_coeff      7     18 lj/cut/coul/debye      0.02987572      5.70000000     14.25000000     31.415044
pair_coeff      7     19 lj/cut/coul/debye      0.02987572      5.70000000     14.25000000     ${cut_coul}
pair_coeff      7     19 lj/cut/coul/debye      0.02987572      5.70000000     14.25000000     31.415044
pair_coeff      7     20 lj/cut/coul/debye      0.02987572      5.70000000     14.25000000     ${cut_coul}
pair_coeff      7     20 lj/cut/coul/debye      0.02987572      5.70000000     14.25000000     31.415044
pair_coeff      7     21 lj/cut/coul/debye      0.02987572      5.70000000     14.25000000     ${cut_coul}
pair_coeff      7     21 lj/cut/coul/debye      0.02987572      5.70000000     14.25000000     31.415044
pair_coeff      7     22 lj/cut/coul/debye      0.02987572      5.70000000     14.25000000     ${cut_coul}
pair_coeff      7     22 lj/cut/coul/debye      0.02987572      5.70000000     14.25000000     31.415044
pair_coeff      7     23 lj/cut/coul/debye      0.02987572      5.70000000     14.25000000     ${cut_coul}
pair_coeff      7     23 lj/cut/coul/debye      0.02987572      5.70000000     14.25000000     31.415044
pair_coeff      7     24 lj/cut/coul/debye      0.02987572      5.70000000     14.25000000     ${cut_coul}
pair_coeff      7     24 lj/cut/coul/debye      0.02987572      5.70000000     14.25000000     31.415044
pair_coeff      7     25 lj/cut/coul/debye      0.02987572      5.70000000     14.25000000     ${cut_coul}
pair_coeff      7     25 lj/cut/coul/debye      0.02987572      5.70000000     14.25000000     31.415044
pair_coeff      7     26 lj/cut/coul/debye      0.02987572      5.70000000     14.25000000     ${cut_coul}
pair_coeff      7     26 lj/cut/coul/debye      0.02987572      5.70000000     14.25000000     31.415044
pair_coeff      7     27 lj/cut/coul/debye      0.02987572      5.70000000     14.25000000     ${cut_coul}
pair_coeff      7     27 lj/cut/coul/debye      0.02987572      5.70000000     14.25000000     31.415044
pair_coeff      7     28 lj/cut/coul/debye      0.02987572      5.70000000     14.25000000     ${cut_coul}
pair_coeff      7     28 lj/cut/coul/debye      0.02987572      5.70000000     14.25000000     31.415044
pair_coeff      7     29 lj/cut/coul/debye      0.02987572      5.70000000     14.25000000     ${cut_coul}
pair_coeff      7     29 lj/cut/coul/debye      0.02987572      5.70000000     14.25000000     31.415044
pair_coeff      7     30 lj/cut/coul/debye      0.02987572      5.70000000     14.25000000     ${cut_coul}
pair_coeff      7     30 lj/cut/coul/debye      0.02987572      5.70000000     14.25000000     31.415044
pair_coeff      7     31 lj/cut/coul/debye      0.02987572      5.70000000     14.25000000     ${cut_coul}
pair_coeff      7     31 lj/cut/coul/debye      0.02987572      5.70000000     14.25000000     31.415044
pair_coeff      7     32 lj/cut/coul/debye      0.02987572      5.70000000     14.25000000     ${cut_coul}
pair_coeff      7     32 lj/cut/coul/debye      0.02987572      5.70000000     14.25000000     31.415044
pair_coeff      7     33 lj/cut/coul/debye      0.02987572      5.70000000     14.25000000     ${cut_coul}
pair_coeff      7     33 lj/cut/coul/debye      0.02987572      5.70000000     14.25000000     31.415044
pair_coeff      7     34 lj/cut/coul/debye      0.02987572      5.70000000     14.25000000     ${cut_coul}
pair_coeff      7     34 lj/cut/coul/debye      0.02987572      5.70000000     14.25000000     31.415044
pair_coeff      8     15 lj/cut/coul/debye      0.02987572      5.70000000     14.25000000     ${cut_coul}
pair_coeff      8     15 lj/cut/coul/debye      0.02987572      5.70000000     14.25000000     31.415044
pair_coeff      8     16 lj/cut/coul/debye      0.02987572      5.70000000     14.25000000     ${cut_coul}
pair_coeff      8     16 lj/cut/coul/debye      0.02987572      5.70000000     14.25000000     31.415044
pair_coeff      8     17 lj/cut/coul/debye      0.02987572      5.70000000     14.25000000     ${cut_coul}
pair_coeff      8     17 lj/cut/coul/debye      0.02987572      5.70000000     14.25000000     31.415044
pair_coeff      8     18 lj/cut/coul/debye      0.02987572      5.70000000     14.25000000     ${cut_coul}
pair_coeff      8     18 lj/cut/coul/debye      0.02987572      5.70000000     14.25000000     31.415044
pair_coeff      8     19 lj/cut/coul/debye      0.02987572      5.70000000     14.25000000     ${cut_coul}
pair_coeff      8     19 lj/cut/coul/debye      0.02987572      5.70000000     14.25000000     31.415044
pair_coeff      8     20 lj/cut/coul/debye      0.02987572      5.70000000     14.25000000     ${cut_coul}
pair_coeff      8     20 lj/cut/coul/debye      0.02987572      5.70000000     14.25000000     31.415044
pair_coeff      8     21 lj/cut/coul/debye      0.02987572      5.70000000     14.25000000     ${cut_coul}
pair_coeff      8     21 lj/cut/coul/debye      0.02987572      5.70000000     14.25000000     31.415044
pair_coeff      8     22 lj/cut/coul/debye      0.02987572      5.70000000     14.25000000     ${cut_coul}
pair_coeff      8     22 lj/cut/coul/debye      0.02987572      5.70000000     14.25000000     31.415044
pair_coeff      8     23 lj/cut/coul/debye      0.02987572      5.70000000     14.25000000     ${cut_coul}
pair_coeff      8     23 lj/cut/coul/debye      0.02987572      5.70000000     14.25000000     31.415044
pair_coeff      8     24 lj/cut/coul/debye      0.02987572      5.70000000     14.25000000     ${cut_coul}
pair_coeff      8     24 lj/cut/coul/debye      0.02987572      5.70000000     14.25000000     31.415044
pair_coeff      8     25 lj/cut/coul/debye      0.02987572      5.70000000     14.25000000     ${cut_coul}
pair_coeff      8     25 lj/cut/coul/debye      0.02987572      5.70000000     14.25000000     31.415044
pair_coeff      8     26 lj/cut/coul/debye      0.02987572      5.70000000     14.25000000     ${cut_coul}
pair_coeff      8     26 lj/cut/coul/debye      0.02987572      5.70000000     14.25000000     31.415044
pair_coeff      8     27 lj/cut/coul/debye      0.02987572      5.70000000     14.25000000     ${cut_coul}
pair_coeff      8     27 lj/cut/coul/debye      0.02987572      5.70000000     14.25000000     31.415044
pair_coeff      8     28 lj/cut/coul/debye      0.02987572      5.70000000     14.25000000     ${cut_coul}
pair_coeff      8     28 lj/cut/coul/debye      0.02987572      5.70000000     14.25000000     31.415044
pair_coeff      8     29 lj/cut/coul/debye      0.02987572      5.70000000     14.25000000     ${cut_coul}
pair_coeff      8     29 lj/cut/coul/debye      0.02987572      5.70000000     14.25000000     31.415044
pair_coeff      8     30 lj/cut/coul/debye      0.02987572      5.70000000     14.25000000     ${cut_coul}
pair_coeff      8     30 lj/cut/coul/debye      0.02987572      5.70000000     14.25000000     31.415044
pair_coeff      8     31 lj/cut/coul/debye      0.02987572      5.70000000     14.25000000     ${cut_coul}
pair_coeff      8     31 lj/cut/coul/debye      0.02987572      5.70000000     14.25000000     31.415044
pair_coeff      8     32 lj/cut/coul/debye      0.02987572      5.70000000     14.25000000     ${cut_coul}
pair_coeff      8     32 lj/cut/coul/debye      0.02987572      5.70000000     14.25000000     31.415044
pair_coeff      8     33 lj/cut/coul/debye      0.02987572      5.70000000     14.25000000     ${cut_coul}
pair_coeff      8     33 lj/cut/coul/debye      0.02987572      5.70000000     14.25000000     31.415044
pair_coeff      8     34 lj/cut/coul/debye      0.02987572      5.70000000     14.25000000     ${cut_coul}
pair_coeff      8     34 lj/cut/coul/debye      0.02987572      5.70000000     14.25000000     31.415044
pair_coeff      9     15 lj/cut/coul/debye      0.02987572      5.70000000     14.25000000     ${cut_coul}
pair_coeff      9     15 lj/cut/coul/debye      0.02987572      5.70000000     14.25000000     31.415044
pair_coeff      9     16 lj/cut/coul/debye      0.02987572      5.70000000     14.25000000     ${cut_coul}
pair_coeff      9     16 lj/cut/coul/debye      0.02987572      5.70000000     14.25000000     31.415044
pair_coeff      9     17 lj/cut/coul/debye      0.02987572      5.70000000     14.25000000     ${cut_coul}
pair_coeff      9     17 lj/cut/coul/debye      0.02987572      5.70000000     14.25000000     31.415044
pair_coeff      9     18 lj/cut/coul/debye      0.02987572      5.70000000     14.25000000     ${cut_coul}
pair_coeff      9     18 lj/cut/coul/debye      0.02987572      5.70000000     14.25000000     31.415044
pair_coeff      9     19 lj/cut/coul/debye      0.02987572      5.70000000     14.25000000     ${cut_coul}
pair_coeff      9     19 lj/cut/coul/debye      0.02987572      5.70000000     14.25000000     31.415044
pair_coeff      9     20 lj/cut/coul/debye      0.02987572      5.70000000     14.25000000     ${cut_coul}
pair_coeff      9     20 lj/cut/coul/debye      0.02987572      5.70000000     14.25000000     31.415044
pair_coeff      9     21 lj/cut/coul/debye      0.02987572      5.70000000     14.25000000     ${cut_coul}
pair_coeff      9     21 lj/cut/coul/debye      0.02987572      5.70000000     14.25000000     31.415044
pair_coeff      9     22 lj/cut/coul/debye      0.02987572      5.70000000     14.25000000     ${cut_coul}
pair_coeff      9     22 lj/cut/coul/debye      0.02987572      5.70000000     14.25000000     31.415044
pair_coeff      9     23 lj/cut/coul/debye      0.02987572      5.70000000     14.25000000     ${cut_coul}
pair_coeff      9     23 lj/cut/coul/debye      0.02987572      5.70000000     14.25000000     31.415044
pair_coeff      9     24 lj/cut/coul/debye      0.02987572      5.70000000     14.25000000     ${cut_coul}
pair_coeff      9     24 lj/cut/coul/debye      0.02987572      5.70000000     14.25000000     31.415044
pair_coeff      9     25 lj/cut/coul/debye      0.02987572      5.70000000     14.25000000     ${cut_coul}
pair_coeff      9     25 lj/cut/coul/debye      0.02987572      5.70000000     14.25000000     31.415044
pair_coeff      9     26 lj/cut/coul/debye      0.02987572      5.70000000     14.25000000     ${cut_coul}
pair_coeff      9     26 lj/cut/coul/debye      0.02987572      5.70000000     14.25000000     31.415044
pair_coeff      9     27 lj/cut/coul/debye      0.02987572      5.70000000     14.25000000     ${cut_coul}
pair_coeff      9     27 lj/cut/coul/debye      0.02987572      5.70000000     14.25000000     31.415044
pair_coeff      9     28 lj/cut/coul/debye      0.02987572      5.70000000     14.25000000     ${cut_coul}
pair_coeff      9     28 lj/cut/coul/debye      0.02987572      5.70000000     14.25000000     31.415044
pair_coeff      9     29 lj/cut/coul/debye      0.02987572      5.70000000     14.25000000     ${cut_coul}
pair_coeff      9     29 lj/cut/coul/debye      0.02987572      5.70000000     14.25000000     31.415044
pair_coeff      9     30 lj/cut/coul/debye      0.02987572      5.70000000     14.25000000     ${cut_coul}
pair_coeff      9     30 lj/cut/coul/debye      0.02987572      5.70000000     14.25000000     31.415044
pair_coeff      9     31 lj/cut/coul/debye      0.02987572      5.70000000     14.25000000     ${cut_coul}
pair_coeff      9     31 lj/cut/coul/debye      0.02987572      5.70000000     14.25000000     31.415044
pair_coeff      9     32 lj/cut/coul/debye      0.02987572      5.70000000     14.25000000     ${cut_coul}
pair_coeff      9     32 lj/cut/coul/debye      0.02987572      5.70000000     14.25000000     31.415044
pair_coeff      9     33 lj/cut/coul/debye      0.02987572      5.70000000     14.25000000     ${cut_coul}
pair_coeff      9     33 lj/cut/coul/debye      0.02987572      5.70000000     14.25000000     31.415044
pair_coeff      9     34 lj/cut/coul/debye      0.02987572      5.70000000     14.25000000     ${cut_coul}
pair_coeff      9     34 lj/cut/coul/debye      0.02987572      5.70000000     14.25000000     31.415044
pair_coeff     10     15 lj/cut/coul/debye      0.02987572      5.70000000     14.25000000     ${cut_coul}
pair_coeff     10     15 lj/cut/coul/debye      0.02987572      5.70000000     14.25000000     31.415044
pair_coeff     10     16 lj/cut/coul/debye      0.02987572      5.70000000     14.25000000     ${cut_coul}
pair_coeff     10     16 lj/cut/coul/debye      0.02987572      5.70000000     14.25000000     31.415044
pair_coeff     10     17 lj/cut/coul/debye      0.02987572      5.70000000     14.25000000     ${cut_coul}
pair_coeff     10     17 lj/cut/coul/debye      0.02987572      5.70000000     14.25000000     31.415044
pair_coeff     10     18 lj/cut/coul/debye      0.02987572      5.70000000     14.25000000     ${cut_coul}
pair_coeff     10     18 lj/cut/coul/debye      0.02987572      5.70000000     14.25000000     31.415044
pair_coeff     10     19 lj/cut/coul/debye      0.02987572      5.70000000     14.25000000     ${cut_coul}
pair_coeff     10     19 lj/cut/coul/debye      0.02987572      5.70000000     14.25000000     31.415044
pair_coeff     10     20 lj/cut/coul/debye      0.02987572      5.70000000     14.25000000     ${cut_coul}
pair_coeff     10     20 lj/cut/coul/debye      0.02987572      5.70000000     14.25000000     31.415044
pair_coeff     10     21 lj/cut/coul/debye      0.02987572      5.70000000     14.25000000     ${cut_coul}
pair_coeff     10     21 lj/cut/coul/debye      0.02987572      5.70000000     14.25000000     31.415044
pair_coeff     10     22 lj/cut/coul/debye      0.02987572      5.70000000     14.25000000     ${cut_coul}
pair_coeff     10     22 lj/cut/coul/debye      0.02987572      5.70000000     14.25000000     31.415044
pair_coeff     10     23 lj/cut/coul/debye      0.02987572      5.70000000     14.25000000     ${cut_coul}
pair_coeff     10     23 lj/cut/coul/debye      0.02987572      5.70000000     14.25000000     31.415044
pair_coeff     10     24 lj/cut/coul/debye      0.02987572      5.70000000     14.25000000     ${cut_coul}
pair_coeff     10     24 lj/cut/coul/debye      0.02987572      5.70000000     14.25000000     31.415044
pair_coeff     10     25 lj/cut/coul/debye      0.02987572      5.70000000     14.25000000     ${cut_coul}
pair_coeff     10     25 lj/cut/coul/debye      0.02987572      5.70000000     14.25000000     31.415044
pair_coeff     10     26 lj/cut/coul/debye      0.02987572      5.70000000     14.25000000     ${cut_coul}
pair_coeff     10     26 lj/cut/coul/debye      0.02987572      5.70000000     14.25000000     31.415044
pair_coeff     10     27 lj/cut/coul/debye      0.02987572      5.70000000     14.25000000     ${cut_coul}
pair_coeff     10     27 lj/cut/coul/debye      0.02987572      5.70000000     14.25000000     31.415044
pair_coeff     10     28 lj/cut/coul/debye      0.02987572      5.70000000     14.25000000     ${cut_coul}
pair_coeff     10     28 lj/cut/coul/debye      0.02987572      5.70000000     14.25000000     31.415044
pair_coeff     10     29 lj/cut/coul/debye      0.02987572      5.70000000     14.25000000     ${cut_coul}
pair_coeff     10     29 lj/cut/coul/debye      0.02987572      5.70000000     14.25000000     31.415044
pair_coeff     10     30 lj/cut/coul/debye      0.02987572      5.70000000     14.25000000     ${cut_coul}
pair_coeff     10     30 lj/cut/coul/debye      0.02987572      5.70000000     14.25000000     31.415044
pair_coeff     10     31 lj/cut/coul/debye      0.02987572      5.70000000     14.25000000     ${cut_coul}
pair_coeff     10     31 lj/cut/coul/debye      0.02987572      5.70000000     14.25000000     31.415044
pair_coeff     10     32 lj/cut/coul/debye      0.02987572      5.70000000     14.25000000     ${cut_coul}
pair_coeff     10     32 lj/cut/coul/debye      0.02987572      5.70000000     14.25000000     31.415044
pair_coeff     10     33 lj/cut/coul/debye      0.02987572      5.70000000     14.25000000     ${cut_coul}
pair_coeff     10     33 lj/cut/coul/debye      0.02987572      5.70000000     14.25000000     31.415044
pair_coeff     10     34 lj/cut/coul/debye      0.02987572      5.70000000     14.25000000     ${cut_coul}
pair_coeff     10     34 lj/cut/coul/debye      0.02987572      5.70000000     14.25000000     31.415044
pair_coeff     11     15 lj/cut/coul/debye      0.02987572      5.70000000     14.25000000     ${cut_coul}
pair_coeff     11     15 lj/cut/coul/debye      0.02987572      5.70000000     14.25000000     31.415044
pair_coeff     11     16 lj/cut/coul/debye      0.02987572      5.70000000     14.25000000     ${cut_coul}
pair_coeff     11     16 lj/cut/coul/debye      0.02987572      5.70000000     14.25000000     31.415044
pair_coeff     11     17 lj/cut/coul/debye      0.02987572      5.70000000     14.25000000     ${cut_coul}
pair_coeff     11     17 lj/cut/coul/debye      0.02987572      5.70000000     14.25000000     31.415044
pair_coeff     11     18 lj/cut/coul/debye      0.02987572      5.70000000     14.25000000     ${cut_coul}
pair_coeff     11     18 lj/cut/coul/debye      0.02987572      5.70000000     14.25000000     31.415044
pair_coeff     11     19 lj/cut/coul/debye      0.02987572      5.70000000     14.25000000     ${cut_coul}
pair_coeff     11     19 lj/cut/coul/debye      0.02987572      5.70000000     14.25000000     31.415044
pair_coeff     11     20 lj/cut/coul/debye      0.02987572      5.70000000     14.25000000     ${cut_coul}
pair_coeff     11     20 lj/cut/coul/debye      0.02987572      5.70000000     14.25000000     31.415044
pair_coeff     11     21 lj/cut/coul/debye      0.02987572      5.70000000     14.25000000     ${cut_coul}
pair_coeff     11     21 lj/cut/coul/debye      0.02987572      5.70000000     14.25000000     31.415044
pair_coeff     11     22 lj/cut/coul/debye      0.02987572      5.70000000     14.25000000     ${cut_coul}
pair_coeff     11     22 lj/cut/coul/debye      0.02987572      5.70000000     14.25000000     31.415044
pair_coeff     11     23 lj/cut/coul/debye      0.02987572      5.70000000     14.25000000     ${cut_coul}
pair_coeff     11     23 lj/cut/coul/debye      0.02987572      5.70000000     14.25000000     31.415044
pair_coeff     11     24 lj/cut/coul/debye      0.02987572      5.70000000     14.25000000     ${cut_coul}
pair_coeff     11     24 lj/cut/coul/debye      0.02987572      5.70000000     14.25000000     31.415044
pair_coeff     11     25 lj/cut/coul/debye      0.02987572      5.70000000     14.25000000     ${cut_coul}
pair_coeff     11     25 lj/cut/coul/debye      0.02987572      5.70000000     14.25000000     31.415044
pair_coeff     11     26 lj/cut/coul/debye      0.02987572      5.70000000     14.25000000     ${cut_coul}
pair_coeff     11     26 lj/cut/coul/debye      0.02987572      5.70000000     14.25000000     31.415044
pair_coeff     11     27 lj/cut/coul/debye      0.02987572      5.70000000     14.25000000     ${cut_coul}
pair_coeff     11     27 lj/cut/coul/debye      0.02987572      5.70000000     14.25000000     31.415044
pair_coeff     11     28 lj/cut/coul/debye      0.02987572      5.70000000     14.25000000     ${cut_coul}
pair_coeff     11     28 lj/cut/coul/debye      0.02987572      5.70000000     14.25000000     31.415044
pair_coeff     11     29 lj/cut/coul/debye      0.02987572      5.70000000     14.25000000     ${cut_coul}
pair_coeff     11     29 lj/cut/coul/debye      0.02987572      5.70000000     14.25000000     31.415044
pair_coeff     11     30 lj/cut/coul/debye      0.02987572      5.70000000     14.25000000     ${cut_coul}
pair_coeff     11     30 lj/cut/coul/debye      0.02987572      5.70000000     14.25000000     31.415044
pair_coeff     11     31 lj/cut/coul/debye      0.02987572      5.70000000     14.25000000     ${cut_coul}
pair_coeff     11     31 lj/cut/coul/debye      0.02987572      5.70000000     14.25000000     31.415044
pair_coeff     11     32 lj/cut/coul/debye      0.02987572      5.70000000     14.25000000     ${cut_coul}
pair_coeff     11     32 lj/cut/coul/debye      0.02987572      5.70000000     14.25000000     31.415044
pair_coeff     11     33 lj/cut/coul/debye      0.02987572      5.70000000     14.25000000     ${cut_coul}
pair_coeff     11     33 lj/cut/coul/debye      0.02987572      5.70000000     14.25000000     31.415044
pair_coeff     11     34 lj/cut/coul/debye      0.02987572      5.70000000     14.25000000     ${cut_coul}
pair_coeff     11     34 lj/cut/coul/debye      0.02987572      5.70000000     14.25000000     31.415044
pair_coeff     12     15 lj/cut/coul/debye      0.02987572      5.70000000     14.25000000     ${cut_coul}
pair_coeff     12     15 lj/cut/coul/debye      0.02987572      5.70000000     14.25000000     31.415044
pair_coeff     12     16 lj/cut/coul/debye      0.02987572      5.70000000     14.25000000     ${cut_coul}
pair_coeff     12     16 lj/cut/coul/debye      0.02987572      5.70000000     14.25000000     31.415044
pair_coeff     12     17 lj/cut/coul/debye      0.02987572      5.70000000     14.25000000     ${cut_coul}
pair_coeff     12     17 lj/cut/coul/debye      0.02987572      5.70000000     14.25000000     31.415044
pair_coeff     12     18 lj/cut/coul/debye      0.02987572      5.70000000     14.25000000     ${cut_coul}
pair_coeff     12     18 lj/cut/coul/debye      0.02987572      5.70000000     14.25000000     31.415044
pair_coeff     12     19 lj/cut/coul/debye      0.02987572      5.70000000     14.25000000     ${cut_coul}
pair_coeff     12     19 lj/cut/coul/debye      0.02987572      5.70000000     14.25000000     31.415044
pair_coeff     12     20 lj/cut/coul/debye      0.02987572      5.70000000     14.25000000     ${cut_coul}
pair_coeff     12     20 lj/cut/coul/debye      0.02987572      5.70000000     14.25000000     31.415044
pair_coeff     12     21 lj/cut/coul/debye      0.02987572      5.70000000     14.25000000     ${cut_coul}
pair_coeff     12     21 lj/cut/coul/debye      0.02987572      5.70000000     14.25000000     31.415044
pair_coeff     12     22 lj/cut/coul/debye      0.02987572      5.70000000     14.25000000     ${cut_coul}
pair_coeff     12     22 lj/cut/coul/debye      0.02987572      5.70000000     14.25000000     31.415044
pair_coeff     12     23 lj/cut/coul/debye      0.02987572      5.70000000     14.25000000     ${cut_coul}
pair_coeff     12     23 lj/cut/coul/debye      0.02987572      5.70000000     14.25000000     31.415044
pair_coeff     12     24 lj/cut/coul/debye      0.02987572      5.70000000     14.25000000     ${cut_coul}
pair_coeff     12     24 lj/cut/coul/debye      0.02987572      5.70000000     14.25000000     31.415044
pair_coeff     12     25 lj/cut/coul/debye      0.02987572      5.70000000     14.25000000     ${cut_coul}
pair_coeff     12     25 lj/cut/coul/debye      0.02987572      5.70000000     14.25000000     31.415044
pair_coeff     12     26 lj/cut/coul/debye      0.02987572      5.70000000     14.25000000     ${cut_coul}
pair_coeff     12     26 lj/cut/coul/debye      0.02987572      5.70000000     14.25000000     31.415044
pair_coeff     12     27 lj/cut/coul/debye      0.02987572      5.70000000     14.25000000     ${cut_coul}
pair_coeff     12     27 lj/cut/coul/debye      0.02987572      5.70000000     14.25000000     31.415044
pair_coeff     12     28 lj/cut/coul/debye      0.02987572      5.70000000     14.25000000     ${cut_coul}
pair_coeff     12     28 lj/cut/coul/debye      0.02987572      5.70000000     14.25000000     31.415044
pair_coeff     12     29 lj/cut/coul/debye      0.02987572      5.70000000     14.25000000     ${cut_coul}
pair_coeff     12     29 lj/cut/coul/debye      0.02987572      5.70000000     14.25000000     31.415044
pair_coeff     12     30 lj/cut/coul/debye      0.02987572      5.70000000     14.25000000     ${cut_coul}
pair_coeff     12     30 lj/cut/coul/debye      0.02987572      5.70000000     14.25000000     31.415044
pair_coeff     12     31 lj/cut/coul/debye      0.02987572      5.70000000     14.25000000     ${cut_coul}
pair_coeff     12     31 lj/cut/coul/debye      0.02987572      5.70000000     14.25000000     31.415044
pair_coeff     12     32 lj/cut/coul/debye      0.02987572      5.70000000     14.25000000     ${cut_coul}
pair_coeff     12     32 lj/cut/coul/debye      0.02987572      5.70000000     14.25000000     31.415044
pair_coeff     12     33 lj/cut/coul/debye      0.02987572      5.70000000     14.25000000     ${cut_coul}
pair_coeff     12     33 lj/cut/coul/debye      0.02987572      5.70000000     14.25000000     31.415044
pair_coeff     12     34 lj/cut/coul/debye      0.02987572      5.70000000     14.25000000     ${cut_coul}
pair_coeff     12     34 lj/cut/coul/debye      0.02987572      5.70000000     14.25000000     31.415044
pair_coeff     13     15 lj/cut/coul/debye      0.02987572      5.70000000     14.25000000     ${cut_coul}
pair_coeff     13     15 lj/cut/coul/debye      0.02987572      5.70000000     14.25000000     31.415044
pair_coeff     13     16 lj/cut/coul/debye      0.02987572      5.70000000     14.25000000     ${cut_coul}
pair_coeff     13     16 lj/cut/coul/debye      0.02987572      5.70000000     14.25000000     31.415044
pair_coeff     13     17 lj/cut/coul/debye      0.02987572      5.70000000     14.25000000     ${cut_coul}
pair_coeff     13     17 lj/cut/coul/debye      0.02987572      5.70000000     14.25000000     31.415044
pair_coeff     13     18 lj/cut/coul/debye      0.02987572      5.70000000     14.25000000     ${cut_coul}
pair_coeff     13     18 lj/cut/coul/debye      0.02987572      5.70000000     14.25000000     31.415044
pair_coeff     13     19 lj/cut/coul/debye      0.02987572      5.70000000     14.25000000     ${cut_coul}
pair_coeff     13     19 lj/cut/coul/debye      0.02987572      5.70000000     14.25000000     31.415044
pair_coeff     13     20 lj/cut/coul/debye      0.02987572      5.70000000     14.25000000     ${cut_coul}
pair_coeff     13     20 lj/cut/coul/debye      0.02987572      5.70000000     14.25000000     31.415044
pair_coeff     13     21 lj/cut/coul/debye      0.02987572      5.70000000     14.25000000     ${cut_coul}
pair_coeff     13     21 lj/cut/coul/debye      0.02987572      5.70000000     14.25000000     31.415044
pair_coeff     13     22 lj/cut/coul/debye      0.02987572      5.70000000     14.25000000     ${cut_coul}
pair_coeff     13     22 lj/cut/coul/debye      0.02987572      5.70000000     14.25000000     31.415044
pair_coeff     13     23 lj/cut/coul/debye      0.02987572      5.70000000     14.25000000     ${cut_coul}
pair_coeff     13     23 lj/cut/coul/debye      0.02987572      5.70000000     14.25000000     31.415044
pair_coeff     13     24 lj/cut/coul/debye      0.02987572      5.70000000     14.25000000     ${cut_coul}
pair_coeff     13     24 lj/cut/coul/debye      0.02987572      5.70000000     14.25000000     31.415044
pair_coeff     13     25 lj/cut/coul/debye      0.02987572      5.70000000     14.25000000     ${cut_coul}
pair_coeff     13     25 lj/cut/coul/debye      0.02987572      5.70000000     14.25000000     31.415044
pair_coeff     13     26 lj/cut/coul/debye      0.02987572      5.70000000     14.25000000     ${cut_coul}
pair_coeff     13     26 lj/cut/coul/debye      0.02987572      5.70000000     14.25000000     31.415044
pair_coeff     13     27 lj/cut/coul/debye      0.02987572      5.70000000     14.25000000     ${cut_coul}
pair_coeff     13     27 lj/cut/coul/debye      0.02987572      5.70000000     14.25000000     31.415044
pair_coeff     13     28 lj/cut/coul/debye      0.02987572      5.70000000     14.25000000     ${cut_coul}
pair_coeff     13     28 lj/cut/coul/debye      0.02987572      5.70000000     14.25000000     31.415044
pair_coeff     13     29 lj/cut/coul/debye      0.02987572      5.70000000     14.25000000     ${cut_coul}
pair_coeff     13     29 lj/cut/coul/debye      0.02987572      5.70000000     14.25000000     31.415044
pair_coeff     13     30 lj/cut/coul/debye      0.02987572      5.70000000     14.25000000     ${cut_coul}
pair_coeff     13     30 lj/cut/coul/debye      0.02987572      5.70000000     14.25000000     31.415044
pair_coeff     13     31 lj/cut/coul/debye      0.02987572      5.70000000     14.25000000     ${cut_coul}
pair_coeff     13     31 lj/cut/coul/debye      0.02987572      5.70000000     14.25000000     31.415044
pair_coeff     13     32 lj/cut/coul/debye      0.02987572      5.70000000     14.25000000     ${cut_coul}
pair_coeff     13     32 lj/cut/coul/debye      0.02987572      5.70000000     14.25000000     31.415044
pair_coeff     13     33 lj/cut/coul/debye      0.02987572      5.70000000     14.25000000     ${cut_coul}
pair_coeff     13     33 lj/cut/coul/debye      0.02987572      5.70000000     14.25000000     31.415044
pair_coeff     13     34 lj/cut/coul/debye      0.02987572      5.70000000     14.25000000     ${cut_coul}
pair_coeff     13     34 lj/cut/coul/debye      0.02987572      5.70000000     14.25000000     31.415044
pair_coeff     14     15 lj/cut/coul/debye      0.02987572      5.70000000     14.25000000     ${cut_coul}
pair_coeff     14     15 lj/cut/coul/debye      0.02987572      5.70000000     14.25000000     31.415044
pair_coeff     14     16 lj/cut/coul/debye      0.02987572      5.70000000     14.25000000     ${cut_coul}
pair_coeff     14     16 lj/cut/coul/debye      0.02987572      5.70000000     14.25000000     31.415044
pair_coeff     14     17 lj/cut/coul/debye      0.02987572      5.70000000     14.25000000     ${cut_coul}
pair_coeff     14     17 lj/cut/coul/debye      0.02987572      5.70000000     14.25000000     31.415044
pair_coeff     14     18 lj/cut/coul/debye      0.02987572      5.70000000     14.25000000     ${cut_coul}
pair_coeff     14     18 lj/cut/coul/debye      0.02987572      5.70000000     14.25000000     31.415044
pair_coeff     14     19 lj/cut/coul/debye      0.02987572      5.70000000     14.25000000     ${cut_coul}
pair_coeff     14     19 lj/cut/coul/debye      0.02987572      5.70000000     14.25000000     31.415044
pair_coeff     14     20 lj/cut/coul/debye      0.02987572      5.70000000     14.25000000     ${cut_coul}
pair_coeff     14     20 lj/cut/coul/debye      0.02987572      5.70000000     14.25000000     31.415044
pair_coeff     14     21 lj/cut/coul/debye      0.02987572      5.70000000     14.25000000     ${cut_coul}
pair_coeff     14     21 lj/cut/coul/debye      0.02987572      5.70000000     14.25000000     31.415044
pair_coeff     14     22 lj/cut/coul/debye      0.02987572      5.70000000     14.25000000     ${cut_coul}
pair_coeff     14     22 lj/cut/coul/debye      0.02987572      5.70000000     14.25000000     31.415044
pair_coeff     14     23 lj/cut/coul/debye      0.02987572      5.70000000     14.25000000     ${cut_coul}
pair_coeff     14     23 lj/cut/coul/debye      0.02987572      5.70000000     14.25000000     31.415044
pair_coeff     14     24 lj/cut/coul/debye      0.02987572      5.70000000     14.25000000     ${cut_coul}
pair_coeff     14     24 lj/cut/coul/debye      0.02987572      5.70000000     14.25000000     31.415044
pair_coeff     14     25 lj/cut/coul/debye      0.02987572      5.70000000     14.25000000     ${cut_coul}
pair_coeff     14     25 lj/cut/coul/debye      0.02987572      5.70000000     14.25000000     31.415044
pair_coeff     14     26 lj/cut/coul/debye      0.02987572      5.70000000     14.25000000     ${cut_coul}
pair_coeff     14     26 lj/cut/coul/debye      0.02987572      5.70000000     14.25000000     31.415044
pair_coeff     14     27 lj/cut/coul/debye      0.02987572      5.70000000     14.25000000     ${cut_coul}
pair_coeff     14     27 lj/cut/coul/debye      0.02987572      5.70000000     14.25000000     31.415044
pair_coeff     14     28 lj/cut/coul/debye      0.02987572      5.70000000     14.25000000     ${cut_coul}
pair_coeff     14     28 lj/cut/coul/debye      0.02987572      5.70000000     14.25000000     31.415044
pair_coeff     14     29 lj/cut/coul/debye      0.02987572      5.70000000     14.25000000     ${cut_coul}
pair_coeff     14     29 lj/cut/coul/debye      0.02987572      5.70000000     14.25000000     31.415044
pair_coeff     14     30 lj/cut/coul/debye      0.02987572      5.70000000     14.25000000     ${cut_coul}
pair_coeff     14     30 lj/cut/coul/debye      0.02987572      5.70000000     14.25000000     31.415044
pair_coeff     14     31 lj/cut/coul/debye      0.02987572      5.70000000     14.25000000     ${cut_coul}
pair_coeff     14     31 lj/cut/coul/debye      0.02987572      5.70000000     14.25000000     31.415044
pair_coeff     14     32 lj/cut/coul/debye      0.02987572      5.70000000     14.25000000     ${cut_coul}
pair_coeff     14     32 lj/cut/coul/debye      0.02987572      5.70000000     14.25000000     31.415044
pair_coeff     14     33 lj/cut/coul/debye      0.02987572      5.70000000     14.25000000     ${cut_coul}
pair_coeff     14     33 lj/cut/coul/debye      0.02987572      5.70000000     14.25000000     31.415044
pair_coeff     14     34 lj/cut/coul/debye      0.02987572      5.70000000     14.25000000     ${cut_coul}
pair_coeff     14     34 lj/cut/coul/debye      0.02987572      5.70000000     14.25000000     31.415044
# protein protein pair-wise interaction
pair_coeff     15     15 lj/cut/coul/debye      0.10425138      5.00000000     12.50000000     ${cut_coul}
pair_coeff     15     15 lj/cut/coul/debye      0.10425138      5.00000000     12.50000000     31.415044
pair_coeff     15     16 lj/cut/coul/debye      0.07013971      5.00000000     12.50000000     ${cut_coul}
pair_coeff     15     16 lj/cut/coul/debye      0.07013971      5.00000000     12.50000000     31.415044
pair_coeff     15     17 lj/cut/coul/debye      0.07052299      5.00000000     12.50000000     ${cut_coul}
pair_coeff     15     17 lj/cut/coul/debye      0.07052299      5.00000000     12.50000000     31.415044
pair_coeff     15     18 lj/cut/coul/debye      0.06515711      5.00000000     12.50000000     ${cut_coul}
pair_coeff     15     18 lj/cut/coul/debye      0.06515711      5.00000000     12.50000000     31.415044
pair_coeff     15     19 lj/cut/coul/debye      0.13682993      5.00000000     12.50000000     ${cut_coul}
pair_coeff     15     19 lj/cut/coul/debye      0.13682993      5.00000000     12.50000000     31.415044
pair_coeff     15     20 lj/cut/coul/debye      0.05787485      5.00000000     12.50000000     ${cut_coul}
pair_coeff     15     20 lj/cut/coul/debye      0.05787485      5.00000000     12.50000000     31.415044
pair_coeff     15     21 lj/cut/coul/debye      0.07243938      5.00000000     12.50000000     ${cut_coul}
pair_coeff     15     21 lj/cut/coul/debye      0.07243938      5.00000000     12.50000000     31.415044
pair_coeff     15     22 lj/cut/coul/debye      0.08853702      5.00000000     12.50000000     ${cut_coul}
pair_coeff     15     22 lj/cut/coul/debye      0.08853702      5.00000000     12.50000000     31.415044
pair_coeff     15     23 lj/cut/coul/debye      0.09236979      5.00000000     12.50000000     ${cut_coul}
pair_coeff     15     23 lj/cut/coul/debye      0.09236979      5.00000000     12.50000000     31.415044
pair_coeff     15     24 lj/cut/coul/debye      0.17554092      5.00000000     12.50000000     ${cut_coul}
pair_coeff     15     24 lj/cut/coul/debye      0.17554092      5.00000000     12.50000000     31.415044
pair_coeff     15     25 lj/cut/coul/debye      0.18818907      5.00000000     12.50000000     ${cut_coul}
pair_coeff     15     25 lj/cut/coul/debye      0.18818907      5.00000000     12.50000000     31.415044
pair_coeff     15     26 lj/cut/coul/debye      0.05020930      5.00000000     12.50000000     ${cut_coul}
pair_coeff     15     26 lj/cut/coul/debye      0.05020930      5.00000000     12.50000000     31.415044
pair_coeff     15     27 lj/cut/coul/debye      0.15101119      5.00000000     12.50000000     ${cut_coul}
pair_coeff     15     27 lj/cut/coul/debye      0.15101119      5.00000000     12.50000000     31.415044
pair_coeff     15     28 lj/cut/coul/debye      0.18435630      5.00000000     12.50000000     ${cut_coul}
pair_coeff     15     28 lj/cut/coul/debye      0.18435630      5.00000000     12.50000000     31.415044
pair_coeff     15     29 lj/cut/coul/debye      0.07780526      5.00000000     12.50000000     ${cut_coul}
pair_coeff     15     29 lj/cut/coul/debye      0.07780526      5.00000000     12.50000000     31.415044
pair_coeff     15     30 lj/cut/coul/debye      0.07703870      5.00000000     12.50000000     ${cut_coul}
pair_coeff     15     30 lj/cut/coul/debye      0.07703870      5.00000000     12.50000000     31.415044
pair_coeff     15     31 lj/cut/coul/debye      0.08892029      5.00000000     12.50000000     ${cut_coul}
pair_coeff     15     31 lj/cut/coul/debye      0.08892029      5.00000000     12.50000000     31.415044
pair_coeff     15     32 lj/cut/coul/debye      0.14641186      5.00000000     12.50000000     ${cut_coul}
pair_coeff     15     32 lj/cut/coul/debye      0.14641186      5.00000000     12.50000000     31.415044
pair_coeff     15     33 lj/cut/coul/debye      0.12878111      5.00000000     12.50000000     ${cut_coul}
pair_coeff     15     33 lj/cut/coul/debye      0.12878111      5.00000000     12.50000000     31.415044
pair_coeff     15     34 lj/cut/coul/debye      0.15484396      5.00000000     12.50000000     ${cut_coul}
pair_coeff     15     34 lj/cut/coul/debye      0.15484396      5.00000000     12.50000000     31.415044
pair_coeff     16     16 lj/cut/coul/debye      0.05940795      5.00000000     12.50000000     ${cut_coul}
pair_coeff     16     16 lj/cut/coul/debye      0.05940795      5.00000000     12.50000000     31.415044
pair_coeff     16     17 lj/cut/coul/debye      0.06285745      5.00000000     12.50000000     ${cut_coul}
pair_coeff     16     17 lj/cut/coul/debye      0.06285745      5.00000000     12.50000000     31.415044
pair_coeff     16     18 lj/cut/coul/debye      0.08777046      5.00000000     12.50000000     ${cut_coul}
pair_coeff     16     18 lj/cut/coul/debye      0.08777046      5.00000000     12.50000000     31.415044
pair_coeff     16     19 lj/cut/coul/debye      0.09850222      5.00000000     12.50000000     ${cut_coul}
pair_coeff     16     19 lj/cut/coul/debye      0.09850222      5.00000000     12.50000000     31.415044
pair_coeff     16     20 lj/cut/coul/debye      0.08700391      5.00000000     12.50000000     ${cut_coul}
pair_coeff     16     20 lj/cut/coul/debye      0.08700391      5.00000000     12.50000000     31.415044
pair_coeff     16     21 lj/cut/coul/debye      0.06898988      5.00000000     12.50000000     ${cut_coul}
pair_coeff     16     21 lj/cut/coul/debye      0.06898988      5.00000000     12.50000000     31.415044
pair_coeff     16     22 lj/cut/coul/debye      0.06592367      5.00000000     12.50000000     ${cut_coul}
pair_coeff     16     22 lj/cut/coul/debye      0.06592367      5.00000000     12.50000000     31.415044
pair_coeff     16     23 lj/cut/coul/debye      0.08278786      5.00000000     12.50000000     ${cut_coul}
pair_coeff     16     23 lj/cut/coul/debye      0.08278786      5.00000000     12.50000000     31.415044
pair_coeff     16     24 lj/cut/coul/debye      0.13912960      5.00000000     12.50000000     ${cut_coul}
pair_coeff     16     24 lj/cut/coul/debye      0.13912960      5.00000000     12.50000000     31.415044
pair_coeff     16     25 lj/cut/coul/debye      0.15446068      5.00000000     12.50000000     ${cut_coul}
pair_coeff     16     25 lj/cut/coul/debye      0.15446068      5.00000000     12.50000000     31.415044
pair_coeff     16     26 lj/cut/coul/debye      0.02261335      5.00000000     12.50000000     ${cut_coul}
pair_coeff     16     26 lj/cut/coul/debye      0.02261335      5.00000000     12.50000000     31.415044
pair_coeff     16     27 lj/cut/coul/debye      0.11958246      5.00000000     12.50000000     ${cut_coul}
pair_coeff     16     27 lj/cut/coul/debye      0.11958246      5.00000000     12.50000000     31.415044
pair_coeff     16     28 lj/cut/coul/debye      0.15254430      5.00000000     12.50000000     ${cut_coul}
pair_coeff     16     28 lj/cut/coul/debye      0.15254430      5.00000000     12.50000000     31.415044
pair_coeff     16     29 lj/cut/coul/debye      0.06515711      5.00000000     12.50000000     ${cut_coul}
pair_coeff     16     29 lj/cut/coul/debye      0.06515711      5.00000000     12.50000000     31.415044
pair_coeff     16     30 lj/cut/coul/debye      0.06209089      5.00000000     12.50000000     ${cut_coul}
[...]
pair_coeff     25     28 lj/cut/coul/debye      0.27902575      5.00000000     12.50000000     31.415044
pair_coeff     25     29 lj/cut/coul/debye      0.16097639      5.00000000     12.50000000     ${cut_coul}
pair_coeff     25     29 lj/cut/coul/debye      0.16097639      5.00000000     12.50000000     31.415044
pair_coeff     25     30 lj/cut/coul/debye      0.15024463      5.00000000     12.50000000     ${cut_coul}
pair_coeff     25     30 lj/cut/coul/debye      0.15024463      5.00000000     12.50000000     31.415044
pair_coeff     25     31 lj/cut/coul/debye      0.16634227      5.00000000     12.50000000     ${cut_coul}
pair_coeff     25     31 lj/cut/coul/debye      0.16634227      5.00000000     12.50000000     31.415044
pair_coeff     25     32 lj/cut/coul/debye      0.23533216      5.00000000     12.50000000     ${cut_coul}
pair_coeff     25     32 lj/cut/coul/debye      0.23533216      5.00000000     12.50000000     31.415044
pair_coeff     25     33 lj/cut/coul/debye      0.21731813      5.00000000     12.50000000     ${cut_coul}
pair_coeff     25     33 lj/cut/coul/debye      0.21731813      5.00000000     12.50000000     31.415044
pair_coeff     25     34 lj/cut/coul/debye      0.24836358      5.00000000     12.50000000     ${cut_coul}
pair_coeff     25     34 lj/cut/coul/debye      0.24836358      5.00000000     12.50000000     31.415044
pair_coeff     26     26 lj/cut/coul/debye      0.00459933      5.00000000     12.50000000     ${cut_coul}
pair_coeff     26     26 lj/cut/coul/debye      0.00459933      5.00000000     12.50000000     31.415044
pair_coeff     26     27 lj/cut/coul/debye      0.09505273      5.00000000     12.50000000     ${cut_coul}
pair_coeff     26     27 lj/cut/coul/debye      0.09505273      5.00000000     12.50000000     31.415044
pair_coeff     26     28 lj/cut/coul/debye      0.12878111      5.00000000     12.50000000     ${cut_coul}
pair_coeff     26     28 lj/cut/coul/debye      0.12878111      5.00000000     12.50000000     31.415044
pair_coeff     26     29 lj/cut/coul/debye      0.03717788      5.00000000     12.50000000     ${cut_coul}
pair_coeff     26     29 lj/cut/coul/debye      0.03717788      5.00000000     12.50000000     31.415044
pair_coeff     26     30 lj/cut/coul/debye      0.04024410      5.00000000     12.50000000     ${cut_coul}
pair_coeff     26     30 lj/cut/coul/debye      0.04024410      5.00000000     12.50000000     31.415044
pair_coeff     26     31 lj/cut/coul/debye      0.05020930      5.00000000     12.50000000     ${cut_coul}
pair_coeff     26     31 lj/cut/coul/debye      0.05020930      5.00000000     12.50000000     31.415044
pair_coeff     26     32 lj/cut/coul/debye      0.10310155      5.00000000     12.50000000     ${cut_coul}
pair_coeff     26     32 lj/cut/coul/debye      0.10310155      5.00000000     12.50000000     31.415044
pair_coeff     26     33 lj/cut/coul/debye      0.09965205      5.00000000     12.50000000     ${cut_coul}
pair_coeff     26     33 lj/cut/coul/debye      0.09965205      5.00000000     12.50000000     31.415044
pair_coeff     26     34 lj/cut/coul/debye      0.09543600      5.00000000     12.50000000     ${cut_coul}
pair_coeff     26     34 lj/cut/coul/debye      0.09543600      5.00000000     12.50000000     31.415044
pair_coeff     27     27 lj/cut/coul/debye      0.20926931      5.00000000     12.50000000     ${cut_coul}
pair_coeff     27     27 lj/cut/coul/debye      0.20926931      5.00000000     12.50000000     31.415044
pair_coeff     27     28 lj/cut/coul/debye      0.25142980      5.00000000     12.50000000     ${cut_coul}
pair_coeff     27     28 lj/cut/coul/debye      0.25142980      5.00000000     12.50000000     31.415044
pair_coeff     27     29 lj/cut/coul/debye      0.13223061      5.00000000     12.50000000     ${cut_coul}
pair_coeff     27     29 lj/cut/coul/debye      0.13223061      5.00000000     12.50000000     31.415044
pair_coeff     27     30 lj/cut/coul/debye      0.11613297      5.00000000     12.50000000     ${cut_coul}
pair_coeff     27     30 lj/cut/coul/debye      0.11613297      5.00000000     12.50000000     31.415044
pair_coeff     27     31 lj/cut/coul/debye      0.13453027      5.00000000     12.50000000     ${cut_coul}
pair_coeff     27     31 lj/cut/coul/debye      0.13453027      5.00000000     12.50000000     31.415044
pair_coeff     27     32 lj/cut/coul/debye      0.21271881      5.00000000     12.50000000     ${cut_coul}
pair_coeff     27     32 lj/cut/coul/debye      0.21271881      5.00000000     12.50000000     31.415044
pair_coeff     27     33 lj/cut/coul/debye      0.18818907      5.00000000     12.50000000     ${cut_coul}
pair_coeff     27     33 lj/cut/coul/debye      0.18818907      5.00000000     12.50000000     31.415044
pair_coeff     27     34 lj/cut/coul/debye      0.20390343      5.00000000     12.50000000     ${cut_coul}
pair_coeff     27     34 lj/cut/coul/debye      0.20390343      5.00000000     12.50000000     31.415044
pair_coeff     28     28 lj/cut/coul/debye      0.27825919      5.00000000     12.50000000     ${cut_coul}
pair_coeff     28     28 lj/cut/coul/debye      0.27825919      5.00000000     12.50000000     31.415044
pair_coeff     28     29 lj/cut/coul/debye      0.16289278      5.00000000     12.50000000     ${cut_coul}
pair_coeff     28     29 lj/cut/coul/debye      0.16289278      5.00000000     12.50000000     31.415044
pair_coeff     28     30 lj/cut/coul/debye      0.15407741      5.00000000     12.50000000     ${cut_coul}
pair_coeff     28     30 lj/cut/coul/debye      0.15407741      5.00000000     12.50000000     31.415044
pair_coeff     28     31 lj/cut/coul/debye      0.16404261      5.00000000     12.50000000     ${cut_coul}
pair_coeff     28     31 lj/cut/coul/debye      0.16404261      5.00000000     12.50000000     31.415044
pair_coeff     28     32 lj/cut/coul/debye      0.23609871      5.00000000     12.50000000     ${cut_coul}
pair_coeff     28     32 lj/cut/coul/debye      0.23609871      5.00000000     12.50000000     31.415044
pair_coeff     28     33 lj/cut/coul/debye      0.21693485      5.00000000     12.50000000     ${cut_coul}
pair_coeff     28     33 lj/cut/coul/debye      0.21693485      5.00000000     12.50000000     31.415044
pair_coeff     28     34 lj/cut/coul/debye      0.24108131      5.00000000     12.50000000     ${cut_coul}
pair_coeff     28     34 lj/cut/coul/debye      0.24108131      5.00000000     12.50000000     31.415044
pair_coeff     29     29 lj/cut/coul/debye      0.06707350      5.00000000     12.50000000     ${cut_coul}
pair_coeff     29     29 lj/cut/coul/debye      0.06707350      5.00000000     12.50000000     31.415044
pair_coeff     29     30 lj/cut/coul/debye      0.06017451      5.00000000     12.50000000     ${cut_coul}
pair_coeff     29     30 lj/cut/coul/debye      0.06017451      5.00000000     12.50000000     31.415044
pair_coeff     29     31 lj/cut/coul/debye      0.07282265      5.00000000     12.50000000     ${cut_coul}
pair_coeff     29     31 lj/cut/coul/debye      0.07282265      5.00000000     12.50000000     31.415044
pair_coeff     29     32 lj/cut/coul/debye      0.14296237      5.00000000     12.50000000     ${cut_coul}
pair_coeff     29     32 lj/cut/coul/debye      0.14296237      5.00000000     12.50000000     31.415044
pair_coeff     29     33 lj/cut/coul/debye      0.12226540      5.00000000     12.50000000     ${cut_coul}
pair_coeff     29     33 lj/cut/coul/debye      0.12226540      5.00000000     12.50000000     31.415044
pair_coeff     29     34 lj/cut/coul/debye      0.12724801      5.00000000     12.50000000     ${cut_coul}
pair_coeff     29     34 lj/cut/coul/debye      0.12724801      5.00000000     12.50000000     31.415044
pair_coeff     30     30 lj/cut/coul/debye      0.06400728      5.00000000     12.50000000     ${cut_coul}
pair_coeff     30     30 lj/cut/coul/debye      0.06400728      5.00000000     12.50000000     31.415044
pair_coeff     30     31 lj/cut/coul/debye      0.07512232      5.00000000     12.50000000     ${cut_coul}
pair_coeff     30     31 lj/cut/coul/debye      0.07512232      5.00000000     12.50000000     31.415044
pair_coeff     30     32 lj/cut/coul/debye      0.11459986      5.00000000     12.50000000     ${cut_coul}
pair_coeff     30     32 lj/cut/coul/debye      0.11459986      5.00000000     12.50000000     31.415044
pair_coeff     30     33 lj/cut/coul/debye      0.10655104      5.00000000     12.50000000     ${cut_coul}
pair_coeff     30     33 lj/cut/coul/debye      0.10655104      5.00000000     12.50000000     31.415044
pair_coeff     30     34 lj/cut/coul/debye      0.11689952      5.00000000     12.50000000     ${cut_coul}
pair_coeff     30     34 lj/cut/coul/debye      0.11689952      5.00000000     12.50000000     31.415044
pair_coeff     31     31 lj/cut/coul/debye      0.08125475      5.00000000     12.50000000     ${cut_coul}
pair_coeff     31     31 lj/cut/coul/debye      0.08125475      5.00000000     12.50000000     31.415044
pair_coeff     31     32 lj/cut/coul/debye      0.12341523      5.00000000     12.50000000     ${cut_coul}
pair_coeff     31     32 lj/cut/coul/debye      0.12341523      5.00000000     12.50000000     31.415044
pair_coeff     31     33 lj/cut/coul/debye      0.11536642      5.00000000     12.50000000     ${cut_coul}
pair_coeff     31     33 lj/cut/coul/debye      0.11536642      5.00000000     12.50000000     31.415044
pair_coeff     31     34 lj/cut/coul/debye      0.13261389      5.00000000     12.50000000     ${cut_coul}
pair_coeff     31     34 lj/cut/coul/debye      0.13261389      5.00000000     12.50000000     31.415044
pair_coeff     32     32 lj/cut/coul/debye      0.19393823      5.00000000     12.50000000     ${cut_coul}
pair_coeff     32     32 lj/cut/coul/debye      0.19393823      5.00000000     12.50000000     31.415044
pair_coeff     32     33 lj/cut/coul/debye      0.17860714      5.00000000     12.50000000     ${cut_coul}
pair_coeff     32     33 lj/cut/coul/debye      0.17860714      5.00000000     12.50000000     31.415044
pair_coeff     32     34 lj/cut/coul/debye      0.19853755      5.00000000     12.50000000     ${cut_coul}
pair_coeff     32     34 lj/cut/coul/debye      0.19853755      5.00000000     12.50000000     31.415044
pair_coeff     33     33 lj/cut/coul/debye      0.15982656      5.00000000     12.50000000     ${cut_coul}
pair_coeff     33     33 lj/cut/coul/debye      0.15982656      5.00000000     12.50000000     31.415044
pair_coeff     33     34 lj/cut/coul/debye      0.17707403      5.00000000     12.50000000     ${cut_coul}
pair_coeff     33     34 lj/cut/coul/debye      0.17707403      5.00000000     12.50000000     31.415044
pair_coeff     34     34 lj/cut/coul/debye      0.21156897      5.00000000     12.50000000     ${cut_coul}
pair_coeff     34     34 lj/cut/coul/debye      0.21156897      5.00000000     12.50000000     31.415044

## shift the cutoff energy
pair_modify         shift yes

include           ${inputdir}/forcefield/bonded_ff.txt
include           /nfs/pool002/users/smliu/tetra-nucl-msm/lammps-structures/multi_nucleo-v1.0-167-4-seq-1zbb/single_nucleo/post_processing/forcefield/bonded_ff.txt
bond_coeff          1       list
bond_coeff          2       list/ca


angle_coeff     1	list
angle_coeff 	2	stacking/3spn2	3.303059	3.580000	100.130000	3.000000	6.000000
angle_coeff 	3	stacking/3spn2	3.597036	3.560000	90.480000	3.000000	6.000000
angle_coeff 	4	stacking/3spn2	3.183556	3.850000	104.390000	3.000000	6.000000
angle_coeff 	5	stacking/3spn2	3.781071	3.450000	93.230000	3.000000	6.000000
angle_coeff 	6	stacking/3spn2	2.186902	4.150000	102.590000	3.000000	6.000000
angle_coeff 	7	stacking/3spn2	2.973231	3.930000	93.320000	3.000000	6.000000
angle_coeff 	8	stacking/3spn2	2.289675	4.320000	103.700000	3.000000	6.000000
angle_coeff 	9	stacking/3spn2	3.133365	3.870000	94.550000	3.000000	6.000000
angle_coeff 	10	stacking/3spn2	3.288719	3.510000	95.450000	3.000000	6.000000
angle_coeff 	11	stacking/3spn2	3.487094	3.470000	87.630000	3.000000	6.000000
angle_coeff 	12	stacking/3spn2	3.530115	3.670000	106.360000	3.000000	6.000000
angle_coeff 	13	stacking/3spn2	3.625717	3.420000	83.120000	3.000000	6.000000
angle_coeff 	14	stacking/3spn2	2.210803	4.150000	102.690000	3.000000	6.000000
angle_coeff 	15	stacking/3spn2	2.968451	3.990000	96.050000	3.000000	6.000000
angle_coeff 	16	stacking/3spn2	2.110421	4.340000	100.460000	3.000000	6.000000
angle_coeff 	17	stacking/3spn2	3.348470	3.840000	100.680000	3.000000	6.000000
angle_coeff     18      list/ca


dihedral_coeff	    1	list
dihedral_coeff	    2	list/ca

#   ---         group definitions       --- #
#include             ${inputdir}/groupsDefinition/group_rigid.txt
#group nonRigidBody  subtract all nucl1 nucl2 nucl3 nucl4
#group2ndx           groups.ndx

# ---     from AWSEM simulation   ---
neighbor            5      bin
# exclude interactions
#neigh_modify exclude group nucl1 nucl1 check no
#neigh_modify exclude group nucl2 nucl2 check no
#neigh_modify exclude group nucl3 nucl3 check no
#neigh_modify exclude group nucl4 nucl4 check no
neigh_modify        check  yes     one 5000    # this avoids the error "boost neigh_modify one"
atom_modify         sort 0 0.0
#special_bonds       fene
special_bonds       lj 0.0 0.0 0.0 coul 0.0 0.0 0.0
#delete_bonds nucl1 multi remove
#delete_bonds nucl2 multi remove
#delete_bonds nucl3 multi remove
#delete_bonds nucl4 multi remove

# compute different components of DNA non-bonded energy
# code from LAMMPS-3SPN2/GCGI/example/DNA_with_GCGI_ions.in
compute edna all pair 3spn2
variable ebp equal c_edna[1] # Base pairing energy
variable ecstk equal c_edna[2] # Cross stacking energy
variable eexcl equal c_edna[3] # Excluded volume energy
variable dna_ecoul equal c_edna[4] # DNA coulombic energy
variable nbp equal c_edna[5] # Number of base pairs

compute e_bonds all bond
compute e_angles all angle
compute e_dihedrals all dihedral
compute e_sbm_pair all pair list
compute e_lj_debye all pair lj/cut/coul/debye
compute e_lj_debye_vdwl all pair lj/cut/coul/debye evdwl
compute e_lj_debye_coul all pair lj/cut/coul/debye ecoul

variable e_all_coul equal "v_dna_ecoul+c_e_lj_debye_coul"
variable e_all_vdwl equal "v_eexcl+c_e_lj_debye_vdwl"

#####################################################
#timestep            10.0
thermo              1
#thermo_style        multi
thermo_style        custom step pe v_ebp v_ecstk v_eexcl v_dna_ecoul v_nbp c_e_bonds[*] c_e_angles[*] c_e_dihedrals[*] c_e_sbm_pair c_e_lj_debye c_e_lj_debye_vdwl c_e_lj_debye_coul v_e_all_vdwl v_e_all_coul
thermo_modify flush yes

#velocity            all create ${T} ${random} rot yes mom yes dist gaussian

#minimize        1.0e-4 1.0e-6 100 1000
reset_timestep 0

#fix                 pl all plumed plumedfile plumed.txt outfile plumed.out

#dump                1 all dcd 10000 DUMP_FILE.dcd
#dump_modify         1 sort id

#fix                 rigidBody core rigid/nvt group 4 nucl1 nucl2 nucl3 nucl4 temp ${T} ${T} 1000.0
#fix                 myfix nonRigidBody nvt temp ${T} ${T} 1000.0

balance 1.1 shift xyz 10 1.0
Neighbor list info ...
  3 neighbor list requests
  update every 1 steps, delay 10 steps, check yes
  max neighbors/atom: 5000, page size: 100000
  master list distance cutoff = 55
  ghost atom cutoff = 55
  binsize = 27.5 -> bins = 73 73 73
#run 500

rerun traj.dcd skip 1 dump x y z format molfile dcd /home/xclin/lib/vmd.old/plugins/LINUXAMD64/molfile
Dump reader uses molfile plugin: CHARMM,NAMD,XPLOR DCD Trajectory v1.11 by Axel Kohlmeyer, Justin Gullingsrud, John Stone
WARNING: No fixes defined, atoms won't move (../verlet.cpp:55)
Memory usage per processor = 7.10077 Mbytes
Step PotEng v_ebp v_ecstk v_eexcl v_dna_ecoul v_nbp c_e_bonds[1] c_e_bonds[2] c_e_angles[1] c_e_angles[2] c_e_angles[3] c_e_dihedrals[1] c_e_dihedrals[2] c_e_sbm_pair c_e_lj_debye c_e_lj_debye_vdwl c_e_lj_debye_coul v_e_all_vdwl v_e_all_coul 
       0    99222.778   -1638.0414   -372.98199    138.23861    224.54071          366    3121.5862    3.8785322    584.46018    9739.7648   0.11583928   -3071.2932  0.013192903    -5606.541    96099.038    96686.053   -587.01571    96824.292     -362.475 
       1    32284.361   -1270.2845   -417.00984    45.435493    223.14949          454    12946.476    11509.909    7833.9722    10229.059    679.41501   -3290.1085    45.382031   -5601.3162    -649.7181     15.18584   -664.90394    60.621333   -441.75446 
       2    32258.307   -1268.7866   -425.51594    42.697407    231.87051          461    12925.303      11529.7    7838.6489    10195.325    662.16995   -3270.5269    45.382032   -5601.3162   -646.64493      9.45503   -656.09996    52.152437   -424.22946 
       3     32324.59   -1282.3881   -417.87491    43.457158    228.18302          460    12948.768    11522.153    7845.9362    10205.068    712.92785   -3275.1619    45.382057   -5601.3162   -650.54352    21.625496   -672.16902    65.082654     -443.986 
       4    32250.144   -1266.7679   -419.71033    43.490505    241.27067          447    12911.578    11509.966    7844.0116    10191.686    706.53127   -3267.2104    45.382026   -5601.3162   -688.76768    11.408396   -700.17607    54.898901    -458.9054 
       5    32243.785    -1280.754   -420.08556    44.781476    236.83617          465    12946.517    11508.794    7822.1178    10222.687    666.33936   -3264.3037    45.382062   -5601.3162   -683.21037    2.0626488   -685.27301    46.844125   -448.43684 
       6    32176.445   -1293.4933   -421.79265    44.116399    237.53379          469    12939.058    11504.778    7817.6305    10184.236    671.31867   -3270.4803    45.382035   -5601.3162   -680.52587    8.6698711   -689.19575     52.78627   -451.66196 
       7    32287.986   -1275.2284   -422.52072    45.725644    233.31752          452    12930.576    11504.541    7842.9812    10217.422    695.20002   -3268.5408    45.382022   -5601.3162   -659.55264    19.864593   -679.41724    65.590237   -446.09972 
       8    32255.441    -1273.374    -420.8279    44.334908    228.17837          454    12934.039    11517.745    7828.9437    10190.589    662.86557   -3277.0456    45.382008   -5601.3162   -624.07333      14.9775   -639.05083    59.312409   -410.87246 
       9    32363.218   -1291.3903   -416.41781    46.428112      227.784          464    12926.248    11509.688    7855.4475     10248.27    689.15689   -3237.7515    45.382027   -5601.3162   -638.31036    18.906007   -657.21636    65.334119   -429.43236 
      10    32243.903   -1278.6939   -419.54124    43.904587    243.24518          461     12943.83    11483.969    7834.6664    10224.316    680.86318    -3262.357     45.38203   -5601.3162   -694.36508     17.53147   -711.89655    61.436057   -468.65137 
Loop time of 1.76956 on 1 procs for 11 steps with 7782 atoms

Performance: 0.537 ns/day, 44.686 hours/ns, 6.216 timesteps/s
97.1% CPU use with 1 MPI tasks x no OpenMP threads

MPI task timing breakdown:
Section |  min time  |  avg time  |  max time  |%varavg| %total
---------------------------------------------------------------
Pair    | 0          | 0          | 0          |   0.0 |  0.00
Bond    | 0          | 0          | 0          |   0.0 |  0.00
Neigh   | 0          | 0          | 0          |   0.0 |  0.00
Comm    | 0          | 0          | 0          |   0.0 |  0.00
Output  | 0          | 0          | 0          |   0.0 |  0.00
Modify  | 0          | 0          | 0          |   0.0 |  0.00
Other   |            | 1.77       |            |       |100.00

Nlocal:    7782 ave 7782 max 7782 min
Histogram: 1 0 0 0 0 0 0 0 0 0
Nghost:    0 ave 0 max 0 min
Histogram: 1 0 0 0 0 0 0 0 0 0
Neighs:    2.62297e+06 ave 2.62297e+06 max 2.62297e+06 min
Histogram: 1 0 0 0 0 0 0 0 0 0

Total # of neighbors = 2622967
Ave neighs/atom = 337.056
Ave special neighs/atom = 6.61167
Neighbor list builds = 0
Dangerous builds = 0


Total wall time: 0:00:02
